
     Program PWSCF v.5.1.2 starts on 29Oct2019 at 22:15:38 

     This program is part of the open-source Quantum ESPRESSO suite
     for quantum simulation of materials; please cite
         "P. Giannozzi et al., J. Phys.:Condens. Matter 21 395502 (2009);
          URL http://www.quantum-espresso.org", 
     in publications or presentations arising from this work. More details at
     http://www.quantum-espresso.org/quote

     Serial multi-threaded version, running on   10 processor cores
     Waiting for input...
     Reading input from standard input
     Message from routine read_cards :
     DEPRECATED: no units specified in ATOMIC_POSITIONS card
     Message from routine read_cards :
     ATOMIC_POSITIONS: units set to alat

     Current dimensions of program PWSCF are:
     Max number of different atomic species (ntypx) = 10
     Max number of k-points (npk) =  40000
     Max angular momentum in pseudopotentials (lmaxx) =  3
               file Ge.pbe-dn-rrkjus_psl.0.2.2.UPF: wavefunction(s)  3D renormalized

     G-vector sticks info
     --------------------
     sticks:   dense  smooth     PW     G-vecs:    dense   smooth      PW
     Sum        1039    1039    367                22227    22227    4621



     bravais-lattice index     =            2
     lattice parameter (alat)  =      10.8171  a.u.
     unit-cell volume          =     316.4269 (a.u.)^3
     number of atoms/cell      =            2
     number of atomic types    =            1
     number of electrons       =        28.00
     number of Kohn-Sham states=           66
     kinetic-energy cutoff     =      65.0000  Ry
     charge density cutoff     =     260.0000  Ry
     convergence threshold     =      1.0E-08
     mixing beta               =       0.7000
     number of iterations used =            8  plain     mixing
     Exchange-correlation      = PBE ( 1  4  3  4 0 0)

     celldm(1)=  10.817107  celldm(2)=   0.000000  celldm(3)=   0.000000
     celldm(4)=   0.000000  celldm(5)=   0.000000  celldm(6)=   0.000000

     crystal axes: (cart. coord. in units of alat)
               a(1) = (  -0.500000   0.000000   0.500000 )  
               a(2) = (   0.000000   0.500000   0.500000 )  
               a(3) = (  -0.500000   0.500000   0.000000 )  

     reciprocal axes: (cart. coord. in units 2 pi/alat)
               b(1) = ( -1.000000 -1.000000  1.000000 )  
               b(2) = (  1.000000  1.000000  1.000000 )  
               b(3) = ( -1.000000  1.000000 -1.000000 )  


     PseudoPot. # 1 for Ge read from file:
     ./Ge.pbe-dn-rrkjus_psl.0.2.2.UPF
     MD5 check sum: 9557dd4be68bf872fc867d431758ce48
     Pseudo is Ultrasoft + core correction, Zval = 14.0
     Generated using "atomic" code by A. Dal Corso  v.5.0.2 svn rev. 9415
     Using radial grid of 1207 points,  6 beta functions with: 
                l(1) =   0
                l(2) =   0
                l(3) =   1
                l(4) =   1
                l(5) =   2
                l(6) =   2
     Q(r) pseudized with 0 coefficients 


     atomic species   valence    mass     pseudopotential
        Ge            14.00    72.63000     Ge( 1.00)

     No symmetry found



   Cartesian axes

     site n.     atom                  positions (alat units)
         1           Ge  tau(   1) = (   0.0000000   0.0000000   0.0000000  )
         2           Ge  tau(   2) = (   0.2500000   0.2500000   0.2500000  )

     number of k points=    77
                       cart. coord. in units 2pi/alat
        k(    1) = (   0.0000000   0.0000000   0.0000000), wk =   0.0259740
        k(    2) = (   0.0000000   1.0000000   0.0000000), wk =   0.0259740
        k(    3) = (  -1.0000000   0.0000000   0.0000000), wk =   0.0259740
        k(    4) = (   0.0000000   0.0000000   1.0000000), wk =   0.0259740
        k(    5) = (   0.0000000  -1.0000000   0.0000000), wk =   0.0259740
        k(    6) = (   1.0000000   0.0000000   0.0000000), wk =   0.0259740
        k(    7) = (   0.0000000   0.0000000  -1.0000000), wk =   0.0259740
        k(    8) = (   1.0000000   0.0000000   1.0000000), wk =   0.0259740
        k(    9) = (  -1.0000000   0.0000000  -1.0000000), wk =   0.0259740
        k(   10) = (   0.0000000  -1.0000000   1.0000000), wk =   0.0259740
        k(   11) = (   0.0000000   1.0000000  -1.0000000), wk =   0.0259740
        k(   12) = (  -1.0000000  -1.0000000   0.0000000), wk =   0.0259740
        k(   13) = (   1.0000000   1.0000000   0.0000000), wk =   0.0259740
        k(   14) = (   0.7500000  -0.7500000  -0.7500000), wk =   0.0259740
        k(   15) = (   0.2500000  -0.2500000  -1.2500000), wk =   0.0259740
        k(   16) = (  -0.2500000   0.2500000  -1.7500000), wk =   0.0259740
        k(   17) = (  -0.7500000   0.7500000  -2.2500000), wk =   0.0259740
        k(   18) = (   1.2500000  -0.2500000  -0.2500000), wk =   0.0259740
        k(   19) = (   0.7500000   0.2500000  -0.7500000), wk =   0.0259740
        k(   20) = (   0.2500000   0.7500000  -1.2500000), wk =   0.0259740
        k(   21) = (  -0.2500000   1.2500000  -1.7500000), wk =   0.0259740
        k(   22) = (   1.7500000   0.2500000   0.2500000), wk =   0.0259740
        k(   23) = (   1.2500000   0.7500000  -0.2500000), wk =   0.0259740
        k(   24) = (   0.7500000   1.2500000  -0.7500000), wk =   0.0259740
        k(   25) = (   0.2500000   1.7500000  -1.2500000), wk =   0.0259740
        k(   26) = (   2.2500000   0.7500000   0.7500000), wk =   0.0259740
        k(   27) = (   1.7500000   1.2500000   0.2500000), wk =   0.0259740
        k(   28) = (   1.2500000   1.7500000  -0.2500000), wk =   0.0259740
        k(   29) = (   0.7500000   2.2500000  -0.7500000), wk =   0.0259740
        k(   30) = (   0.2500000  -1.2500000  -0.2500000), wk =   0.0259740
        k(   31) = (  -0.2500000  -0.7500000  -0.7500000), wk =   0.0259740
        k(   32) = (  -0.7500000  -0.2500000  -1.2500000), wk =   0.0259740
        k(   33) = (  -1.2500000   0.2500000  -1.7500000), wk =   0.0259740
        k(   34) = (   0.7500000  -0.7500000   0.2500000), wk =   0.0259740
        k(   35) = (   0.2500000  -0.2500000  -0.2500000), wk =   0.0259740
        k(   36) = (  -0.2500000   0.2500000  -0.7500000), wk =   0.0259740
        k(   37) = (  -0.7500000   0.7500000  -1.2500000), wk =   0.0259740
        k(   38) = (   1.2500000  -0.2500000   0.7500000), wk =   0.0259740
        k(   39) = (   0.7500000   0.2500000   0.2500000), wk =   0.0259740
        k(   40) = (   0.2500000   0.7500000  -0.2500000), wk =   0.0259740
        k(   41) = (  -0.2500000   1.2500000  -0.7500000), wk =   0.0259740
        k(   42) = (   1.7500000   0.2500000   1.2500000), wk =   0.0259740
        k(   43) = (   1.2500000   0.7500000   0.7500000), wk =   0.0259740
        k(   44) = (   0.7500000   1.2500000   0.2500000), wk =   0.0259740
        k(   45) = (   0.2500000   1.7500000  -0.2500000), wk =   0.0259740
        k(   46) = (  -0.2500000  -1.7500000   0.2500000), wk =   0.0259740
        k(   47) = (  -0.7500000  -1.2500000  -0.2500000), wk =   0.0259740
        k(   48) = (  -1.2500000  -0.7500000  -0.7500000), wk =   0.0259740
        k(   49) = (  -1.7500000  -0.2500000  -1.2500000), wk =   0.0259740
        k(   50) = (   0.2500000  -1.2500000   0.7500000), wk =   0.0259740
        k(   51) = (  -0.2500000  -0.7500000   0.2500000), wk =   0.0259740
        k(   52) = (  -0.7500000  -0.2500000  -0.2500000), wk =   0.0259740
        k(   53) = (  -1.2500000   0.2500000  -0.7500000), wk =   0.0259740
        k(   54) = (   0.7500000  -0.7500000   1.2500000), wk =   0.0259740
        k(   55) = (   0.2500000  -0.2500000   0.7500000), wk =   0.0259740
        k(   56) = (  -0.2500000   0.2500000   0.2500000), wk =   0.0259740
        k(   57) = (  -0.7500000   0.7500000  -0.2500000), wk =   0.0259740
        k(   58) = (   1.2500000  -0.2500000   1.7500000), wk =   0.0259740
        k(   59) = (   0.7500000   0.2500000   1.2500000), wk =   0.0259740
        k(   60) = (   0.2500000   0.7500000   0.7500000), wk =   0.0259740
        k(   61) = (  -0.2500000   1.2500000   0.2500000), wk =   0.0259740
        k(   62) = (  -0.7500000  -2.2500000   0.7500000), wk =   0.0259740
        k(   63) = (  -1.2500000  -1.7500000   0.2500000), wk =   0.0259740
        k(   64) = (  -1.7500000  -1.2500000  -0.2500000), wk =   0.0259740
        k(   65) = (  -2.2500000  -0.7500000  -0.7500000), wk =   0.0259740
        k(   66) = (  -0.2500000  -1.7500000   1.2500000), wk =   0.0259740
        k(   67) = (  -0.7500000  -1.2500000   0.7500000), wk =   0.0259740
        k(   68) = (  -1.2500000  -0.7500000   0.2500000), wk =   0.0259740
        k(   69) = (  -1.7500000  -0.2500000  -0.2500000), wk =   0.0259740
        k(   70) = (   0.2500000  -1.2500000   1.7500000), wk =   0.0259740
        k(   71) = (  -0.2500000  -0.7500000   1.2500000), wk =   0.0259740
        k(   72) = (  -0.7500000  -0.2500000   0.7500000), wk =   0.0259740
        k(   73) = (  -1.2500000   0.2500000   0.2500000), wk =   0.0259740
        k(   74) = (   0.7500000  -0.7500000   2.2500000), wk =   0.0259740
        k(   75) = (   0.2500000  -0.2500000   1.7500000), wk =   0.0259740
        k(   76) = (  -0.2500000   0.2500000   1.2500000), wk =   0.0259740
        k(   77) = (  -0.7500000   0.7500000   0.7500000), wk =   0.0259740

     Dense  grid:    22227 G-vectors     FFT dimensions: (  40,  40,  40)

     Largest allocated arrays     est. size (Mb)     dimensions
        Kohn-Sham Wavefunctions         2.82 Mb     (    2798,   66)
        NL pseudopotentials             1.54 Mb     (    2798,   36)
        Each V/rho on FFT grid          0.98 Mb     (   64000)
        Each G-vector array             0.17 Mb     (   22227)
        G-vector shells                 0.00 Mb     (     258)
     Largest temporary arrays     est. size (Mb)     dimensions
        Auxiliary wavefunctions        11.27 Mb     (    2798,  264)
        Each subspace H/S matrix        1.06 Mb     (     264,  264)
        Each <psi_i|beta_j> matrix      0.04 Mb     (      36,   66)
        Arrays for rho mixing           7.81 Mb     (   64000,    8)

     Check: negative/imaginary core charge=   -0.000013    0.000000

     Initial potential from superposition of free atoms

     starting charge   27.99847, renormalised to   28.00000
     Starting wfc are   18 randomized atomic wfcs +   48 random wfc

     total cpu time spent up to now is       19.7 secs

     per-process dynamical memory:   245.3 Mb

     Self-consistent Calculation

     iteration #  1     ecut=    65.00 Ry     beta=0.70
     Davidson diagonalization with overlap
     ethr =  1.00E-02,  avg # of iterations =  5.0

     Threshold (ethr) on eigenvalues was too large:
     Diagonalizing with lowered threshold

     Davidson diagonalization with overlap
     ethr =  1.55E-04,  avg # of iterations =  2.4

     total cpu time spent up to now is      198.1 secs

     total energy              =    -422.81239026 Ry
     Harris-Foulkes estimate   =    -422.82053128 Ry
     estimated scf accuracy    <       0.04341523 Ry

     iteration #  2     ecut=    65.00 Ry     beta=0.70
     Davidson diagonalization with overlap
     ethr =  1.55E-04,  avg # of iterations =  1.0

     total cpu time spent up to now is      246.5 secs

     total energy              =    -422.81408316 Ry
     Harris-Foulkes estimate   =    -422.81403594 Ry
     estimated scf accuracy    <       0.00246600 Ry

     iteration #  3     ecut=    65.00 Ry     beta=0.70
     Davidson diagonalization with overlap
     ethr =  8.81E-06,  avg # of iterations =  4.0

     total cpu time spent up to now is      313.6 secs

     total energy              =    -422.81422286 Ry
     Harris-Foulkes estimate   =    -422.81423140 Ry
     estimated scf accuracy    <       0.00008005 Ry

     iteration #  4     ecut=    65.00 Ry     beta=0.70
     Davidson diagonalization with overlap
     ethr =  2.86E-07,  avg # of iterations =  3.1

     total cpu time spent up to now is      384.7 secs

     total energy              =    -422.81424258 Ry
     Harris-Foulkes estimate   =    -422.81424008 Ry
     estimated scf accuracy    <       0.00000582 Ry

     iteration #  5     ecut=    65.00 Ry     beta=0.70
     Davidson diagonalization with overlap
     ethr =  2.08E-08,  avg # of iterations =  3.4

     total cpu time spent up to now is      462.4 secs

     total energy              =    -422.81424387 Ry
     Harris-Foulkes estimate   =    -422.81424367 Ry
     estimated scf accuracy    <       0.00000020 Ry

     iteration #  6     ecut=    65.00 Ry     beta=0.70
     Davidson diagonalization with overlap
     ethr =  7.27E-10,  avg # of iterations =  4.0

     total cpu time spent up to now is      545.2 secs

     total energy              =    -422.81424394 Ry
     Harris-Foulkes estimate   =    -422.81424391 Ry
     estimated scf accuracy    <       0.00000001 Ry

     iteration #  7     ecut=    65.00 Ry     beta=0.70
     Davidson diagonalization with overlap
     ethr =  4.41E-11,  avg # of iterations =  4.0

     total cpu time spent up to now is      633.6 secs

     End of self-consistent calculation

          k = 0.0000 0.0000 0.0000 (  2741 PWs)   bands (ev):

   -16.6870 -16.6297 -16.6297 -16.6179 -16.6179 -16.4637 -16.4079 -16.4079
   -16.3966 -16.3966  -4.4081   7.8343   8.0931   8.0931   8.1243  10.5823
    10.6438  10.6438  14.5433  17.4268  17.4268  18.8282  18.8282  18.9113
    21.9143  32.5514  32.5514  32.5650  33.8504  33.8504  33.8962  34.2984
    34.3273  34.3273  34.9008  34.9008  41.8457  46.9745  47.0251  47.0251
    47.2207  47.2263  47.2263  47.7787  47.9709  47.9709  48.0323  48.5540
    48.5540  48.5633  48.6931  48.6931  48.8339  48.8339  48.9550  49.0610
    49.0610  49.8330  49.8956  49.8956  53.4593  55.6018  55.6018  55.6222
    55.6364  55.6364

          k = 0.0000 1.0000 0.0000 (  2778 PWs)   bands (ev):

   -16.7067 -16.6621 -16.6209 -16.5700 -16.5152 -16.5056 -16.4795 -16.4513
   -16.3763 -16.3462  -0.6881  -0.6232   5.1390   5.1419   8.8948   8.9152
    17.2976  17.3435  19.3967  19.4192  20.7303  20.7747  21.6623  21.7038
    26.9787  27.0165  27.0250  27.0393  27.1056  27.1716  27.7579  27.7632
    36.4797  36.5526  37.0681  37.1161  39.4756  39.5152  40.9122  40.9551
    42.2340  42.2934  43.8721  43.9002  44.5373  44.5425  46.6290  46.6603
    47.3088  47.3133  55.4189  55.4298  55.4361  55.4569  55.6048  55.6210
    59.1995  59.2668  61.4451  61.4568  62.1481  62.1482  62.3654  62.3938
    62.4892  62.5389

          k =-1.0000 0.0000 0.0000 (  2778 PWs)   bands (ev):

   -16.7067 -16.6621 -16.6209 -16.5700 -16.5152 -16.5056 -16.4795 -16.4513
   -16.3763 -16.3462  -0.6881  -0.6232   5.1390   5.1419   8.8948   8.9152
    17.2976  17.3435  19.3967  19.4192  20.7303  20.7747  21.6623  21.7038
    26.9787  27.0165  27.0250  27.0393  27.1056  27.1716  27.7579  27.7632
    36.4797  36.5526  37.0681  37.1160  39.4756  39.5152  40.9122  40.9551
    42.2340  42.2934  43.8721  43.9002  44.5373  44.5425  46.6290  46.6603
    47.3088  47.3133  55.4189  55.4298  55.4361  55.4569  55.6048  55.6210
    59.1995  59.2668  61.4451  61.4568  62.1481  62.1482  62.3654  62.3938
    62.4892  62.5389

          k = 0.0000 0.0000 1.0000 (  2778 PWs)   bands (ev):

   -16.7067 -16.6621 -16.6209 -16.5700 -16.5152 -16.5056 -16.4795 -16.4513
   -16.3763 -16.3462  -0.6881  -0.6232   5.1390   5.1419   8.8948   8.9152
    17.2976  17.3435  19.3967  19.4192  20.7303  20.7747  21.6623  21.7038
    26.9787  27.0165  27.0250  27.0393  27.1056  27.1716  27.7579  27.7632
    36.4797  36.5526  37.0681  37.1160  39.4756  39.5152  40.9122  40.9551
    42.2340  42.2934  43.8721  43.9002  44.5373  44.5425  46.6290  46.6603
    47.3088  47.3133  55.4189  55.4298  55.4361  55.4569  55.6048  55.6210
    59.1995  59.2668  61.4451  61.4568  62.1481  62.1482  62.3654  62.3938
    62.4892  62.5389

          k = 0.0000-1.0000 0.0000 (  2778 PWs)   bands (ev):

   -16.7067 -16.6621 -16.6209 -16.5700 -16.5152 -16.5056 -16.4795 -16.4513
   -16.3763 -16.3462  -0.6881  -0.6232   5.1390   5.1419   8.8948   8.9152
    17.2976  17.3435  19.3967  19.4192  20.7303  20.7747  21.6623  21.7038
    26.9787  27.0165  27.0250  27.0393  27.1056  27.1716  27.7579  27.7632
    36.4797  36.5526  37.0681  37.1161  39.4756  39.5152  40.9122  40.9551
    42.2340  42.2934  43.8721  43.9002  44.5373  44.5425  46.6290  46.6603
    47.3088  47.3133  55.4189  55.4298  55.4361  55.4569  55.6048  55.6210
    59.1995  59.2668  61.4451  61.4568  62.1481  62.1482  62.3654  62.3938
    62.4892  62.5389

          k = 1.0000 0.0000 0.0000 (  2778 PWs)   bands (ev):

   -16.7067 -16.6621 -16.6209 -16.5700 -16.5152 -16.5056 -16.4795 -16.4513
   -16.3763 -16.3462  -0.6881  -0.6232   5.1390   5.1419   8.8948   8.9152
    17.2976  17.3435  19.3967  19.4192  20.7303  20.7747  21.6623  21.7038
    26.9787  27.0165  27.0250  27.0393  27.1056  27.1716  27.7579  27.7632
    36.4797  36.5526  37.0681  37.1160  39.4756  39.5152  40.9122  40.9551
    42.2340  42.2934  43.8721  43.9002  44.5373  44.5425  46.6290  46.6603
    47.3088  47.3133  55.4189  55.4298  55.4361  55.4569  55.6048  55.6210
    59.1995  59.2668  61.4451  61.4568  62.1481  62.1482  62.3654  62.3938
    62.4892  62.5389

          k = 0.0000 0.0000-1.0000 (  2778 PWs)   bands (ev):

   -16.7067 -16.6621 -16.6209 -16.5700 -16.5152 -16.5056 -16.4795 -16.4513
   -16.3763 -16.3462  -0.6881  -0.6232   5.1390   5.1419   8.8948   8.9152
    17.2976  17.3435  19.3967  19.4192  20.7303  20.7747  21.6623  21.7038
    26.9787  27.0165  27.0250  27.0393  27.1056  27.1716  27.7579  27.7632
    36.4797  36.5526  37.0681  37.1160  39.4756  39.5152  40.9122  40.9551
    42.2340  42.2934  43.8721  43.9002  44.5373  44.5425  46.6290  46.6603
    47.3088  47.3133  55.4189  55.4298  55.4361  55.4569  55.6048  55.6210
    59.1995  59.2668  61.4451  61.4568  62.1481  62.1482  62.3654  62.3938
    62.4892  62.5389

          k = 1.0000 0.0000 1.0000 (  2778 PWs)   bands (ev):

   -16.7067 -16.6621 -16.6209 -16.5700 -16.5152 -16.5056 -16.4795 -16.4513
   -16.3763 -16.3462  -0.6881  -0.6232   5.1390   5.1419   8.8948   8.9152
    17.2976  17.3435  19.3967  19.4192  20.7303  20.7747  21.6623  21.7038
    26.9787  27.0165  27.0250  27.0393  27.1056  27.1716  27.7579  27.7632
    36.4797  36.5526  37.0681  37.1161  39.4756  39.5152  40.9122  40.9551
    42.2340  42.2934  43.8721  43.9002  44.5373  44.5425  46.6290  46.6603
    47.3088  47.3133  55.4189  55.4298  55.4361  55.4569  55.6048  55.6210
    59.1995  59.2668  61.4451  61.4568  62.1481  62.1482  62.3654  62.3938
    62.4892  62.5389

          k =-1.0000 0.0000-1.0000 (  2778 PWs)   bands (ev):

   -16.7067 -16.6621 -16.6209 -16.5700 -16.5152 -16.5056 -16.4795 -16.4513
   -16.3763 -16.3462  -0.6881  -0.6232   5.1390   5.1419   8.8948   8.9152
    17.2976  17.3435  19.3967  19.4192  20.7303  20.7747  21.6623  21.7038
    26.9787  27.0165  27.0250  27.0393  27.1056  27.1716  27.7579  27.7632
    36.4797  36.5526  37.0681  37.1161  39.4756  39.5152  40.9122  40.9551
    42.2340  42.2934  43.8721  43.9002  44.5373  44.5425  46.6290  46.6603
    47.3088  47.3133  55.4189  55.4298  55.4361  55.4569  55.6048  55.6210
    59.1995  59.2668  61.4451  61.4568  62.1481  62.1482  62.3654  62.3938
    62.4892  62.5389

          k = 0.0000-1.0000 1.0000 (  2778 PWs)   bands (ev):

   -16.7067 -16.6621 -16.6209 -16.5700 -16.5152 -16.5056 -16.4795 -16.4513
   -16.3763 -16.3462  -0.6881  -0.6232   5.1390   5.1419   8.8948   8.9152
    17.2976  17.3435  19.3967  19.4192  20.7303  20.7747  21.6623  21.7038
    26.9787  27.0165  27.0250  27.0393  27.1056  27.1716  27.7579  27.7632
    36.4797  36.5526  37.0681  37.1160  39.4756  39.5152  40.9122  40.9551
    42.2340  42.2934  43.8721  43.9002  44.5373  44.5425  46.6290  46.6603
    47.3088  47.3133  55.4189  55.4298  55.4361  55.4569  55.6048  55.6210
    59.1995  59.2668  61.4451  61.4568  62.1481  62.1482  62.3654  62.3938
    62.4892  62.5389

          k = 0.0000 1.0000-1.0000 (  2778 PWs)   bands (ev):

   -16.7067 -16.6621 -16.6209 -16.5700 -16.5152 -16.5056 -16.4795 -16.4513
   -16.3763 -16.3462  -0.6881  -0.6232   5.1390   5.1419   8.8948   8.9152
    17.2976  17.3435  19.3967  19.4192  20.7303  20.7747  21.6623  21.7038
    26.9787  27.0165  27.0250  27.0393  27.1056  27.1716  27.7579  27.7632
    36.4797  36.5526  37.0681  37.1160  39.4756  39.5152  40.9122  40.9551
    42.2340  42.2934  43.8721  43.9002  44.5373  44.5425  46.6290  46.6603
    47.3088  47.3133  55.4189  55.4298  55.4361  55.4569  55.6048  55.6210
    59.1995  59.2668  61.4451  61.4568  62.1481  62.1482  62.3654  62.3938
    62.4892  62.5389

          k =-1.0000-1.0000 0.0000 (  2778 PWs)   bands (ev):

   -16.7067 -16.6621 -16.6209 -16.5700 -16.5152 -16.5056 -16.4795 -16.4513
   -16.3763 -16.3462  -0.6881  -0.6232   5.1390   5.1419   8.8948   8.9152
    17.2976  17.3435  19.3967  19.4192  20.7303  20.7747  21.6623  21.7038
    26.9787  27.0165  27.0250  27.0393  27.1056  27.1716  27.7579  27.7632
    36.4797  36.5526  37.0681  37.1160  39.4756  39.5152  40.9122  40.9551
    42.2340  42.2934  43.8721  43.9002  44.5373  44.5425  46.6290  46.6603
    47.3088  47.3133  55.4189  55.4298  55.4361  55.4569  55.6048  55.6210
    59.1995  59.2668  61.4451  61.4568  62.1481  62.1482  62.3654  62.3938
    62.4892  62.5389

          k = 1.0000 1.0000 0.0000 (  2778 PWs)   bands (ev):

   -16.7067 -16.6621 -16.6209 -16.5700 -16.5152 -16.5056 -16.4795 -16.4513
   -16.3763 -16.3462  -0.6881  -0.6232   5.1390   5.1419   8.8948   8.9152
    17.2976  17.3435  19.3967  19.4192  20.7303  20.7747  21.6623  21.7038
    26.9787  27.0165  27.0250  27.0393  27.1056  27.1716  27.7579  27.7632
    36.4797  36.5526  37.0681  37.1160  39.4756  39.5152  40.9122  40.9551
    42.2340  42.2934  43.8721  43.9002  44.5373  44.5425  46.6290  46.6603
    47.3088  47.3133  55.4189  55.4298  55.4361  55.4569  55.6048  55.6210
    59.1995  59.2668  61.4451  61.4568  62.1481  62.1482  62.3654  62.3938
    62.4892  62.5389

          k = 0.7500-0.7500-0.7500 (  2794 PWs)   bands (ev):

   -16.6797 -16.6555 -16.6555 -16.5820 -16.5820 -16.4719 -16.4314 -16.4314
   -16.3788 -16.3788  -3.6971   3.4670   7.2520   7.2520   8.5726  11.6796
    11.6796  13.6012  16.2066  16.3481  16.3481  18.8649  22.9623  22.9623
    25.8341  26.0602  26.0602  26.4404  33.7534  33.7535  34.9262  34.9712
    34.9712  36.7201  38.2467  38.3608  38.3608  42.2434  42.2434  42.7807
    42.7807  42.9051  43.5049  43.9085  44.0001  44.0001  47.4670  47.4670
    47.6011  48.0552  49.3863  49.3863  49.5672  53.6963  53.6963  54.7623
    54.7623  54.8161  56.1963  56.1963  56.8160  57.7728  60.5486  60.5486
    60.7104  61.7304

          k = 0.2500-0.2500-1.2500 (  2798 PWs)   bands (ev):

   -16.7196 -16.6555 -16.5898 -16.5565 -16.5476 -16.5381 -16.4761 -16.4221
   -16.3831 -16.3480  -1.9932   0.7942   4.5363   5.7859   9.5023  12.2369
    13.4743  14.2165  17.9073  19.2728  19.5476  20.3404  21.3347  24.7278
    25.8267  26.6355  27.6224  27.6247  28.0697  29.8761  32.0544  32.4078
    33.2601  34.9372  35.6902  36.1278  36.6440  38.0466  38.9585  40.4535
    41.5580  43.5013  43.7372  45.0785  45.6389  47.1698  48.7229  50.0946
    50.2154  50.7781  50.8973  51.9472  53.8771  54.3382  54.3721  55.0354
    55.9667  56.2392  57.9796  58.9501  60.7555  60.8567  62.0608  62.7587
    63.3852  64.3008

          k =-0.2500 0.2500-1.7500 (  2794 PWs)   bands (ev):

   -16.6797 -16.6555 -16.6555 -16.5820 -16.5820 -16.4719 -16.4314 -16.4314
   -16.3788 -16.3788  -3.6971   3.4670   7.2520   7.2520   8.5726  11.6796
    11.6796  13.6012  16.2066  16.3481  16.3481  18.8649  22.9623  22.9623
    25.8341  26.0602  26.0602  26.4404  33.7534  33.7535  34.9262  34.9712
    34.9712  36.7201  38.2467  38.3608  38.3608  42.2434  42.2434  42.7807
    42.7807  42.9051  43.5049  43.9085  44.0001  44.0001  47.4670  47.4670
    47.6011  48.0552  49.3863  49.3863  49.5672  53.6963  53.6963  54.7623
    54.7623  54.8161  56.1963  56.1963  56.8160  57.7728  60.5486  60.5486
    60.7104  61.7304

          k =-0.7500 0.7500-2.2500 (  2798 PWs)   bands (ev):

   -16.7196 -16.6555 -16.5898 -16.5565 -16.5476 -16.5381 -16.4761 -16.4221
   -16.3831 -16.3480  -1.9932   0.7942   4.5363   5.7859   9.5023  12.2369
    13.4743  14.2165  17.9073  19.2728  19.5476  20.3404  21.3347  24.7278
    25.8267  26.6355  27.6224  27.6247  28.0697  29.8761  32.0544  32.4078
    33.2601  34.9372  35.6902  36.1278  36.6440  38.0466  38.9585  40.4535
    41.5580  43.5013  43.7372  45.0785  45.6389  47.1698  48.7229  50.0946
    50.2154  50.7781  50.8973  51.9472  53.8771  54.3382  54.3721  55.0354
    55.9667  56.2392  57.9796  58.9501  60.7555  60.8567  62.0608  62.7587
    63.3852  64.3008

          k = 1.2500-0.2500-0.2500 (  2798 PWs)   bands (ev):

   -16.7196 -16.6555 -16.5898 -16.5565 -16.5476 -16.5382 -16.4761 -16.4221
   -16.3831 -16.3480  -1.9932   0.7942   4.5363   5.7859   9.5023  12.2369
    13.4743  14.2165  17.9073  19.2728  19.5476  20.3404  21.3347  24.7278
    25.8267  26.6355  27.6224  27.6247  28.0697  29.8761  32.0544  32.4078
    33.2601  34.9372  35.6902  36.1278  36.6440  38.0466  38.9585  40.4535
    41.5580  43.5013  43.7372  45.0785  45.6389  47.1698  48.7229  50.0946
    50.2154  50.7781  50.8973  51.9472  53.8771  54.3382  54.3721  55.0354
    55.9667  56.2392  57.9796  58.9501  60.7555  60.8567  62.0608  62.7587
    63.3852  64.3008

          k = 0.7500 0.2500-0.7500 (  2798 PWs)   bands (ev):

   -16.7196 -16.6555 -16.5898 -16.5565 -16.5476 -16.5381 -16.4761 -16.4221
   -16.3831 -16.3480  -1.9932   0.7942   4.5363   5.7859   9.5023  12.2369
    13.4743  14.2165  17.9073  19.2728  19.5476  20.3404  21.3347  24.7278
    25.8267  26.6355  27.6224  27.6247  28.0697  29.8761  32.0544  32.4078
    33.2601  34.9372  35.6902  36.1278  36.6440  38.0466  38.9585  40.4535
    41.5580  43.5013  43.7372  45.0785  45.6389  47.1698  48.7229  50.0946
    50.2154  50.7781  50.8973  51.9472  53.8771  54.3382  54.3721  55.0354
    55.9667  56.2392  57.9796  58.9501  60.7555  60.8567  62.0608  62.7587
    63.3852  64.3008

          k = 0.2500 0.7500-1.2500 (  2798 PWs)   bands (ev):

   -16.7196 -16.6555 -16.5898 -16.5565 -16.5476 -16.5382 -16.4761 -16.4221
   -16.3831 -16.3480  -1.9932   0.7942   4.5363   5.7859   9.5023  12.2369
    13.4743  14.2165  17.9073  19.2728  19.5476  20.3404  21.3347  24.7278
    25.8267  26.6355  27.6224  27.6247  28.0697  29.8761  32.0544  32.4078
    33.2601  34.9372  35.6902  36.1278  36.6440  38.0466  38.9585  40.4535
    41.5580  43.5013  43.7372  45.0785  45.6389  47.1698  48.7229  50.0946
    50.2154  50.7781  50.8973  51.9472  53.8771  54.3382  54.3721  55.0354
    55.9667  56.2392  57.9796  58.9501  60.7555  60.8567  62.0608  62.7587
    63.3852  64.3008

          k =-0.2500 1.2500-1.7500 (  2798 PWs)   bands (ev):

   -16.7196 -16.6555 -16.5898 -16.5565 -16.5476 -16.5381 -16.4761 -16.4221
   -16.3831 -16.3480  -1.9932   0.7942   4.5363   5.7859   9.5023  12.2369
    13.4743  14.2165  17.9073  19.2728  19.5476  20.3404  21.3347  24.7278
    25.8267  26.6355  27.6224  27.6247  28.0697  29.8761  32.0544  32.4078
    33.2601  34.9372  35.6902  36.1278  36.6440  38.0466  38.9585  40.4535
    41.5580  43.5013  43.7372  45.0785  45.6389  47.1698  48.7229  50.0946
    50.2154  50.7781  50.8973  51.9472  53.8771  54.3382  54.3721  55.0354
    55.9667  56.2392  57.9796  58.9501  60.7555  60.8567  62.0608  62.7587
    63.3852  64.3008

          k = 1.7500 0.2500 0.2500 (  2794 PWs)   bands (ev):

   -16.6797 -16.6555 -16.6555 -16.5820 -16.5820 -16.4719 -16.4314 -16.4314
   -16.3788 -16.3788  -3.6971   3.4670   7.2520   7.2520   8.5726  11.6796
    11.6796  13.6012  16.2066  16.3481  16.3481  18.8649  22.9623  22.9623
    25.8341  26.0602  26.0602  26.4404  33.7534  33.7535  34.9262  34.9712
    34.9712  36.7201  38.2467  38.3608  38.3608  42.2434  42.2434  42.7807
    42.7807  42.9051  43.5049  43.9085  44.0001  44.0001  47.4670  47.4670
    47.6011  48.0552  49.3863  49.3863  49.5672  53.6963  53.6963  54.7623
    54.7623  54.8161  56.1963  56.1963  56.8160  57.7728  60.5486  60.5486
    60.7104  61.7304

          k = 1.2500 0.7500-0.2500 (  2798 PWs)   bands (ev):

   -16.7196 -16.6555 -16.5898 -16.5565 -16.5476 -16.5381 -16.4761 -16.4221
   -16.3831 -16.3480  -1.9932   0.7942   4.5363   5.7859   9.5023  12.2369
    13.4743  14.2165  17.9073  19.2728  19.5476  20.3404  21.3347  24.7278
    25.8267  26.6355  27.6224  27.6247  28.0697  29.8761  32.0544  32.4078
    33.2601  34.9372  35.6902  36.1278  36.6440  38.0466  38.9585  40.4535
    41.5580  43.5013  43.7372  45.0785  45.6389  47.1698  48.7229  50.0946
    50.2154  50.7781  50.8973  51.9472  53.8771  54.3382  54.3721  55.0354
    55.9667  56.2392  57.9796  58.9501  60.7555  60.8567  62.0608  62.7587
    63.3852  64.3008

          k = 0.7500 1.2500-0.7500 (  2794 PWs)   bands (ev):

   -16.6797 -16.6555 -16.6555 -16.5820 -16.5820 -16.4719 -16.4314 -16.4314
   -16.3788 -16.3788  -3.6971   3.4670   7.2520   7.2520   8.5726  11.6796
    11.6796  13.6012  16.2066  16.3481  16.3481  18.8649  22.9623  22.9623
    25.8341  26.0602  26.0602  26.4404  33.7534  33.7535  34.9262  34.9712
    34.9712  36.7201  38.2467  38.3608  38.3608  42.2434  42.2434  42.7807
    42.7807  42.9051  43.5049  43.9085  44.0001  44.0001  47.4670  47.4670
    47.6011  48.0552  49.3863  49.3863  49.5672  53.6963  53.6963  54.7623
    54.7623  54.8161  56.1963  56.1963  56.8160  57.7728  60.5486  60.5486
    60.7104  61.7304

          k = 0.2500 1.7500-1.2500 (  2798 PWs)   bands (ev):

   -16.7196 -16.6555 -16.5898 -16.5565 -16.5476 -16.5381 -16.4761 -16.4221
   -16.3831 -16.3480  -1.9932   0.7942   4.5363   5.7859   9.5023  12.2369
    13.4743  14.2165  17.9073  19.2728  19.5476  20.3404  21.3347  24.7278
    25.8267  26.6355  27.6224  27.6247  28.0697  29.8761  32.0544  32.4078
    33.2601  34.9372  35.6902  36.1278  36.6440  38.0466  38.9585  40.4535
    41.5580  43.5013  43.7372  45.0785  45.6389  47.1698  48.7229  50.0946
    50.2154  50.7781  50.8973  51.9472  53.8771  54.3382  54.3721  55.0354
    55.9667  56.2392  57.9796  58.9501  60.7555  60.8567  62.0608  62.7587
    63.3852  64.3008

          k = 2.2500 0.7500 0.7500 (  2798 PWs)   bands (ev):

   -16.7196 -16.6555 -16.5898 -16.5565 -16.5476 -16.5382 -16.4761 -16.4221
   -16.3831 -16.3480  -1.9932   0.7942   4.5363   5.7859   9.5023  12.2369
    13.4743  14.2165  17.9073  19.2728  19.5476  20.3404  21.3347  24.7278
    25.8267  26.6355  27.6224  27.6247  28.0697  29.8761  32.0544  32.4078
    33.2601  34.9372  35.6902  36.1278  36.6440  38.0466  38.9585  40.4535
    41.5580  43.5013  43.7372  45.0785  45.6389  47.1698  48.7229  50.0946
    50.2154  50.7781  50.8973  51.9472  53.8771  54.3382  54.3721  55.0354
    55.9667  56.2392  57.9796  58.9501  60.7555  60.8567  62.0608  62.7587
    63.3852  64.3008

          k = 1.7500 1.2500 0.2500 (  2798 PWs)   bands (ev):

   -16.7196 -16.6555 -16.5898 -16.5565 -16.5476 -16.5381 -16.4761 -16.4221
   -16.3831 -16.3480  -1.9932   0.7942   4.5363   5.7859   9.5023  12.2369
    13.4743  14.2165  17.9073  19.2728  19.5476  20.3404  21.3347  24.7278
    25.8267  26.6355  27.6224  27.6247  28.0697  29.8761  32.0544  32.4078
    33.2601  34.9372  35.6902  36.1278  36.6440  38.0466  38.9585  40.4535
    41.5580  43.5013  43.7372  45.0785  45.6389  47.1698  48.7229  50.0946
    50.2154  50.7781  50.8973  51.9472  53.8771  54.3382  54.3721  55.0354
    55.9667  56.2392  57.9796  58.9501  60.7555  60.8567  62.0608  62.7587
    63.3852  64.3008

          k = 1.2500 1.7500-0.2500 (  2798 PWs)   bands (ev):

   -16.7196 -16.6555 -16.5898 -16.5565 -16.5476 -16.5382 -16.4761 -16.4221
   -16.3831 -16.3480  -1.9932   0.7942   4.5363   5.7859   9.5023  12.2369
    13.4743  14.2165  17.9073  19.2728  19.5476  20.3404  21.3347  24.7278
    25.8267  26.6355  27.6224  27.6247  28.0697  29.8761  32.0544  32.4078
    33.2601  34.9372  35.6902  36.1278  36.6440  38.0466  38.9585  40.4535
    41.5580  43.5013  43.7372  45.0785  45.6389  47.1698  48.7229  50.0946
    50.2154  50.7781  50.8973  51.9472  53.8771  54.3382  54.3721  55.0354
    55.9667  56.2392  57.9796  58.9501  60.7555  60.8567  62.0608  62.7587
    63.3852  64.3008

          k = 0.7500 2.2500-0.7500 (  2798 PWs)   bands (ev):

   -16.7196 -16.6555 -16.5898 -16.5565 -16.5476 -16.5381 -16.4761 -16.4221
   -16.3831 -16.3480  -1.9932   0.7942   4.5363   5.7859   9.5023  12.2369
    13.4743  14.2165  17.9073  19.2728  19.5476  20.3404  21.3347  24.7278
    25.8267  26.6355  27.6224  27.6247  28.0697  29.8761  32.0544  32.4078
    33.2601  34.9372  35.6902  36.1278  36.6440  38.0466  38.9585  40.4535
    41.5580  43.5013  43.7372  45.0785  45.6389  47.1698  48.7229  50.0946
    50.2154  50.7781  50.8973  51.9472  53.8771  54.3382  54.3721  55.0354
    55.9667  56.2392  57.9796  58.9501  60.7555  60.8567  62.0608  62.7587
    63.3852  64.3008

          k = 0.2500-1.2500-0.2500 (  2798 PWs)   bands (ev):

   -16.7196 -16.6555 -16.5898 -16.5565 -16.5476 -16.5381 -16.4761 -16.4221
   -16.3831 -16.3480  -1.9932   0.7942   4.5363   5.7859   9.5023  12.2369
    13.4743  14.2165  17.9073  19.2728  19.5476  20.3404  21.3347  24.7278
    25.8267  26.6355  27.6224  27.6247  28.0697  29.8761  32.0544  32.4078
    33.2601  34.9372  35.6902  36.1278  36.6440  38.0466  38.9585  40.4535
    41.5580  43.5013  43.7372  45.0785  45.6389  47.1698  48.7229  50.0946
    50.2154  50.7781  50.8973  51.9472  53.8771  54.3382  54.3721  55.0354
    55.9667  56.2392  57.9796  58.9501  60.7555  60.8567  62.0608  62.7587
    63.3852  64.3008

          k =-0.2500-0.7500-0.7500 (  2798 PWs)   bands (ev):

   -16.7196 -16.6555 -16.5898 -16.5565 -16.5476 -16.5382 -16.4761 -16.4221
   -16.3831 -16.3480  -1.9932   0.7942   4.5363   5.7859   9.5023  12.2369
    13.4743  14.2165  17.9073  19.2728  19.5476  20.3404  21.3347  24.7278
    25.8267  26.6355  27.6224  27.6247  28.0697  29.8761  32.0544  32.4078
    33.2601  34.9372  35.6902  36.1278  36.6440  38.0466  38.9585  40.4535
    41.5580  43.5013  43.7372  45.0785  45.6389  47.1698  48.7229  50.0946
    50.2154  50.7781  50.8973  51.9472  53.8771  54.3382  54.3721  55.0354
    55.9667  56.2392  57.9796  58.9501  60.7555  60.8567  62.0608  62.7587
    63.3852  64.3008

          k =-0.7500-0.2500-1.2500 (  2798 PWs)   bands (ev):

   -16.7196 -16.6555 -16.5898 -16.5565 -16.5476 -16.5381 -16.4761 -16.4221
   -16.3831 -16.3480  -1.9932   0.7942   4.5363   5.7859   9.5023  12.2369
    13.4743  14.2165  17.9073  19.2728  19.5476  20.3404  21.3347  24.7278
    25.8267  26.6355  27.6224  27.6247  28.0697  29.8761  32.0544  32.4078
    33.2601  34.9372  35.6902  36.1278  36.6440  38.0466  38.9585  40.4535
    41.5580  43.5013  43.7372  45.0785  45.6389  47.1698  48.7229  50.0946
    50.2154  50.7781  50.8973  51.9472  53.8771  54.3382  54.3721  55.0354
    55.9667  56.2392  57.9796  58.9501  60.7555  60.8567  62.0608  62.7587
    63.3852  64.3008

          k =-1.2500 0.2500-1.7500 (  2798 PWs)   bands (ev):

   -16.7196 -16.6555 -16.5898 -16.5565 -16.5476 -16.5382 -16.4761 -16.4221
   -16.3831 -16.3480  -1.9932   0.7942   4.5363   5.7859   9.5023  12.2369
    13.4743  14.2165  17.9073  19.2728  19.5476  20.3404  21.3347  24.7278
    25.8267  26.6355  27.6224  27.6247  28.0697  29.8761  32.0544  32.4078
    33.2601  34.9372  35.6902  36.1278  36.6440  38.0466  38.9585  40.4535
    41.5580  43.5013  43.7372  45.0785  45.6389  47.1698  48.7229  50.0946
    50.2154  50.7781  50.8973  51.9472  53.8771  54.3382  54.3721  55.0354
    55.9667  56.2392  57.9796  58.9501  60.7555  60.8567  62.0608  62.7587
    63.3852  64.3008

          k = 0.7500-0.7500 0.2500 (  2798 PWs)   bands (ev):

   -16.7196 -16.6555 -16.5898 -16.5565 -16.5476 -16.5381 -16.4761 -16.4221
   -16.3831 -16.3480  -1.9932   0.7942   4.5363   5.7859   9.5023  12.2369
    13.4743  14.2165  17.9073  19.2728  19.5476  20.3404  21.3347  24.7278
    25.8267  26.6355  27.6224  27.6247  28.0697  29.8761  32.0544  32.4078
    33.2601  34.9372  35.6902  36.1278  36.6440  38.0466  38.9585  40.4535
    41.5580  43.5013  43.7372  45.0785  45.6389  47.1698  48.7229  50.0946
    50.2154  50.7781  50.8973  51.9472  53.8771  54.3382  54.3721  55.0354
    55.9667  56.2392  57.9796  58.9501  60.7555  60.8567  62.0608  62.7587
    63.3852  64.3008

          k = 0.2500-0.2500-0.2500 (  2794 PWs)   bands (ev):

   -16.6797 -16.6555 -16.6555 -16.5820 -16.5820 -16.4719 -16.4314 -16.4314
   -16.3788 -16.3788  -3.6971   3.4670   7.2520   7.2520   8.5726  11.6796
    11.6796  13.6012  16.2066  16.3481  16.3481  18.8649  22.9623  22.9623
    25.8341  26.0602  26.0602  26.4404  33.7534  33.7535  34.9262  34.9712
    34.9712  36.7201  38.2467  38.3608  38.3608  42.2434  42.2434  42.7807
    42.7807  42.9051  43.5049  43.9085  44.0001  44.0001  47.4670  47.4670
    47.6011  48.0552  49.3863  49.3863  49.5672  53.6963  53.6963  54.7623
    54.7623  54.8161  56.1963  56.1963  56.8160  57.7728  60.5486  60.5486
    60.7104  61.7304

          k =-0.2500 0.2500-0.7500 (  2798 PWs)   bands (ev):

   -16.7196 -16.6555 -16.5898 -16.5565 -16.5476 -16.5381 -16.4761 -16.4221
   -16.3831 -16.3480  -1.9932   0.7942   4.5363   5.7859   9.5023  12.2369
    13.4743  14.2165  17.9073  19.2728  19.5476  20.3404  21.3347  24.7278
    25.8267  26.6355  27.6224  27.6247  28.0697  29.8761  32.0544  32.4078
    33.2601  34.9372  35.6902  36.1278  36.6440  38.0466  38.9585  40.4535
    41.5580  43.5013  43.7372  45.0785  45.6389  47.1698  48.7229  50.0946
    50.2154  50.7781  50.8973  51.9472  53.8771  54.3382  54.3721  55.0354
    55.9667  56.2392  57.9796  58.9501  60.7555  60.8567  62.0608  62.7587
    63.3852  64.3008

          k =-0.7500 0.7500-1.2500 (  2794 PWs)   bands (ev):

   -16.6797 -16.6555 -16.6555 -16.5820 -16.5820 -16.4719 -16.4314 -16.4314
   -16.3788 -16.3788  -3.6971   3.4670   7.2520   7.2520   8.5726  11.6796
    11.6796  13.6012  16.2066  16.3481  16.3481  18.8649  22.9623  22.9623
    25.8341  26.0602  26.0602  26.4404  33.7534  33.7535  34.9262  34.9712
    34.9712  36.7201  38.2467  38.3608  38.3608  42.2434  42.2434  42.7807
    42.7807  42.9051  43.5049  43.9085  44.0001  44.0001  47.4670  47.4670
    47.6011  48.0552  49.3863  49.3863  49.5672  53.6963  53.6963  54.7623
    54.7623  54.8161  56.1963  56.1963  56.8160  57.7728  60.5486  60.5486
    60.7104  61.7304

          k = 1.2500-0.2500 0.7500 (  2798 PWs)   bands (ev):

   -16.7196 -16.6555 -16.5898 -16.5565 -16.5476 -16.5381 -16.4761 -16.4221
   -16.3831 -16.3480  -1.9932   0.7942   4.5363   5.7859   9.5023  12.2369
    13.4743  14.2165  17.9073  19.2728  19.5476  20.3404  21.3347  24.7278
    25.8267  26.6355  27.6224  27.6247  28.0697  29.8761  32.0544  32.4078
    33.2601  34.9372  35.6902  36.1278  36.6440  38.0466  38.9585  40.4535
    41.5580  43.5013  43.7372  45.0785  45.6389  47.1698  48.7229  50.0946
    50.2154  50.7781  50.8973  51.9472  53.8771  54.3382  54.3721  55.0354
    55.9667  56.2392  57.9796  58.9501  60.7555  60.8567  62.0608  62.7587
    63.3852  64.3008

          k = 0.7500 0.2500 0.2500 (  2798 PWs)   bands (ev):

   -16.7196 -16.6555 -16.5898 -16.5565 -16.5476 -16.5382 -16.4761 -16.4221
   -16.3831 -16.3480  -1.9932   0.7942   4.5363   5.7859   9.5023  12.2369
    13.4743  14.2165  17.9073  19.2728  19.5476  20.3404  21.3347  24.7278
    25.8267  26.6355  27.6224  27.6247  28.0697  29.8761  32.0544  32.4078
    33.2601  34.9372  35.6902  36.1278  36.6440  38.0466  38.9585  40.4535
    41.5580  43.5013  43.7372  45.0785  45.6389  47.1698  48.7229  50.0946
    50.2154  50.7781  50.8973  51.9472  53.8771  54.3382  54.3721  55.0354
    55.9667  56.2392  57.9796  58.9501  60.7555  60.8567  62.0608  62.7587
    63.3852  64.3008

          k = 0.2500 0.7500-0.2500 (  2798 PWs)   bands (ev):

   -16.7196 -16.6555 -16.5898 -16.5565 -16.5476 -16.5381 -16.4761 -16.4221
   -16.3831 -16.3480  -1.9932   0.7942   4.5363   5.7859   9.5023  12.2369
    13.4743  14.2165  17.9073  19.2728  19.5476  20.3404  21.3347  24.7278
    25.8267  26.6355  27.6224  27.6247  28.0697  29.8761  32.0544  32.4078
    33.2601  34.9372  35.6902  36.1278  36.6440  38.0466  38.9585  40.4535
    41.5580  43.5013  43.7372  45.0785  45.6389  47.1698  48.7229  50.0946
    50.2154  50.7781  50.8973  51.9472  53.8771  54.3382  54.3721  55.0354
    55.9667  56.2392  57.9796  58.9501  60.7555  60.8567  62.0608  62.7587
    63.3852  64.3008

          k =-0.2500 1.2500-0.7500 (  2798 PWs)   bands (ev):

   -16.7196 -16.6555 -16.5898 -16.5565 -16.5476 -16.5382 -16.4761 -16.4221
   -16.3831 -16.3480  -1.9932   0.7942   4.5363   5.7859   9.5023  12.2369
    13.4743  14.2165  17.9073  19.2728  19.5476  20.3404  21.3347  24.7278
    25.8267  26.6355  27.6224  27.6247  28.0697  29.8761  32.0544  32.4078
    33.2601  34.9372  35.6902  36.1278  36.6440  38.0466  38.9585  40.4535
    41.5580  43.5013  43.7372  45.0785  45.6389  47.1698  48.7229  50.0946
    50.2154  50.7781  50.8973  51.9472  53.8771  54.3382  54.3721  55.0354
    55.9667  56.2392  57.9796  58.9501  60.7555  60.8567  62.0608  62.7587
    63.3852  64.3008

          k = 1.7500 0.2500 1.2500 (  2798 PWs)   bands (ev):

   -16.7196 -16.6555 -16.5898 -16.5565 -16.5476 -16.5381 -16.4761 -16.4221
   -16.3831 -16.3480  -1.9932   0.7942   4.5363   5.7859   9.5023  12.2369
    13.4743  14.2165  17.9073  19.2728  19.5476  20.3404  21.3347  24.7278
    25.8267  26.6355  27.6224  27.6247  28.0697  29.8761  32.0544  32.4078
    33.2601  34.9372  35.6902  36.1278  36.6440  38.0466  38.9585  40.4535
    41.5580  43.5013  43.7372  45.0785  45.6389  47.1698  48.7229  50.0946
    50.2154  50.7781  50.8973  51.9472  53.8771  54.3382  54.3721  55.0354
    55.9667  56.2392  57.9796  58.9501  60.7555  60.8567  62.0608  62.7587
    63.3852  64.3008

          k = 1.2500 0.7500 0.7500 (  2794 PWs)   bands (ev):

   -16.6797 -16.6555 -16.6555 -16.5820 -16.5820 -16.4719 -16.4314 -16.4314
   -16.3788 -16.3788  -3.6971   3.4670   7.2520   7.2520   8.5726  11.6796
    11.6796  13.6012  16.2066  16.3481  16.3481  18.8649  22.9623  22.9623
    25.8341  26.0602  26.0602  26.4404  33.7534  33.7535  34.9262  34.9712
    34.9712  36.7201  38.2467  38.3608  38.3608  42.2434  42.2434  42.7807
    42.7807  42.9051  43.5049  43.9085  44.0001  44.0001  47.4670  47.4670
    47.6011  48.0552  49.3863  49.3863  49.5672  53.6963  53.6963  54.7623
    54.7623  54.8161  56.1963  56.1963  56.8160  57.7728  60.5486  60.5486
    60.7104  61.7304

          k = 0.7500 1.2500 0.2500 (  2798 PWs)   bands (ev):

   -16.7196 -16.6555 -16.5898 -16.5565 -16.5476 -16.5381 -16.4761 -16.4221
   -16.3831 -16.3480  -1.9932   0.7942   4.5363   5.7859   9.5023  12.2369
    13.4743  14.2165  17.9073  19.2728  19.5476  20.3404  21.3347  24.7278
    25.8267  26.6355  27.6224  27.6247  28.0697  29.8761  32.0544  32.4078
    33.2601  34.9372  35.6902  36.1278  36.6440  38.0466  38.9585  40.4535
    41.5580  43.5013  43.7372  45.0785  45.6389  47.1698  48.7229  50.0946
    50.2154  50.7781  50.8973  51.9472  53.8771  54.3382  54.3721  55.0354
    55.9667  56.2392  57.9796  58.9501  60.7555  60.8567  62.0608  62.7587
    63.3852  64.3008

          k = 0.2500 1.7500-0.2500 (  2794 PWs)   bands (ev):

   -16.6797 -16.6555 -16.6555 -16.5820 -16.5820 -16.4719 -16.4314 -16.4314
   -16.3788 -16.3788  -3.6971   3.4670   7.2520   7.2520   8.5726  11.6796
    11.6796  13.6012  16.2066  16.3481  16.3481  18.8649  22.9623  22.9623
    25.8341  26.0602  26.0602  26.4404  33.7534  33.7535  34.9262  34.9712
    34.9712  36.7201  38.2467  38.3608  38.3608  42.2434  42.2434  42.7807
    42.7807  42.9051  43.5049  43.9085  44.0001  44.0001  47.4670  47.4670
    47.6011  48.0552  49.3863  49.3863  49.5672  53.6963  53.6963  54.7623
    54.7623  54.8161  56.1963  56.1963  56.8160  57.7728  60.5486  60.5486
    60.7104  61.7304

          k =-0.2500-1.7500 0.2500 (  2794 PWs)   bands (ev):

   -16.6797 -16.6555 -16.6555 -16.5820 -16.5820 -16.4719 -16.4314 -16.4314
   -16.3788 -16.3788  -3.6971   3.4670   7.2520   7.2520   8.5726  11.6796
    11.6796  13.6012  16.2066  16.3481  16.3481  18.8649  22.9623  22.9623
    25.8341  26.0602  26.0602  26.4404  33.7534  33.7535  34.9262  34.9712
    34.9712  36.7201  38.2467  38.3608  38.3608  42.2434  42.2434  42.7807
    42.7807  42.9051  43.5049  43.9085  44.0001  44.0001  47.4670  47.4670
    47.6011  48.0552  49.3863  49.3863  49.5672  53.6963  53.6963  54.7623
    54.7623  54.8161  56.1963  56.1963  56.8160  57.7728  60.5486  60.5486
    60.7104  61.7304

          k =-0.7500-1.2500-0.2500 (  2798 PWs)   bands (ev):

   -16.7196 -16.6555 -16.5898 -16.5565 -16.5476 -16.5381 -16.4761 -16.4221
   -16.3831 -16.3480  -1.9932   0.7942   4.5363   5.7859   9.5023  12.2369
    13.4743  14.2165  17.9073  19.2728  19.5476  20.3404  21.3347  24.7278
    25.8267  26.6355  27.6224  27.6247  28.0697  29.8761  32.0544  32.4078
    33.2601  34.9372  35.6902  36.1278  36.6440  38.0466  38.9585  40.4535
    41.5580  43.5013  43.7372  45.0785  45.6389  47.1698  48.7229  50.0946
    50.2154  50.7781  50.8973  51.9472  53.8771  54.3382  54.3721  55.0354
    55.9667  56.2392  57.9796  58.9501  60.7555  60.8567  62.0608  62.7587
    63.3852  64.3008

          k =-1.2500-0.7500-0.7500 (  2794 PWs)   bands (ev):

   -16.6797 -16.6555 -16.6555 -16.5820 -16.5820 -16.4719 -16.4314 -16.4314
   -16.3788 -16.3788  -3.6971   3.4670   7.2520   7.2520   8.5726  11.6796
    11.6796  13.6012  16.2066  16.3481  16.3481  18.8649  22.9623  22.9623
    25.8341  26.0602  26.0602  26.4404  33.7534  33.7535  34.9262  34.9712
    34.9712  36.7201  38.2467  38.3608  38.3608  42.2434  42.2434  42.7807
    42.7807  42.9051  43.5049  43.9085  44.0001  44.0001  47.4670  47.4670
    47.6011  48.0552  49.3863  49.3863  49.5672  53.6963  53.6963  54.7623
    54.7623  54.8161  56.1963  56.1963  56.8160  57.7728  60.5486  60.5486
    60.7104  61.7304

          k =-1.7500-0.2500-1.2500 (  2798 PWs)   bands (ev):

   -16.7196 -16.6555 -16.5898 -16.5565 -16.5476 -16.5381 -16.4761 -16.4221
   -16.3831 -16.3480  -1.9932   0.7942   4.5363   5.7859   9.5023  12.2369
    13.4743  14.2165  17.9073  19.2728  19.5476  20.3404  21.3347  24.7278
    25.8267  26.6355  27.6224  27.6247  28.0697  29.8761  32.0544  32.4078
    33.2601  34.9372  35.6902  36.1278  36.6440  38.0466  38.9585  40.4535
    41.5580  43.5013  43.7372  45.0785  45.6389  47.1698  48.7229  50.0946
    50.2154  50.7781  50.8973  51.9472  53.8771  54.3382  54.3721  55.0354
    55.9667  56.2392  57.9796  58.9501  60.7555  60.8567  62.0608  62.7587
    63.3852  64.3008

          k = 0.2500-1.2500 0.7500 (  2798 PWs)   bands (ev):

   -16.7196 -16.6555 -16.5898 -16.5565 -16.5476 -16.5382 -16.4761 -16.4221
   -16.3831 -16.3480  -1.9932   0.7942   4.5363   5.7859   9.5023  12.2369
    13.4743  14.2165  17.9073  19.2728  19.5476  20.3404  21.3347  24.7278
    25.8267  26.6355  27.6224  27.6247  28.0697  29.8761  32.0544  32.4078
    33.2601  34.9372  35.6902  36.1278  36.6440  38.0466  38.9585  40.4535
    41.5580  43.5013  43.7372  45.0785  45.6389  47.1698  48.7229  50.0946
    50.2154  50.7781  50.8973  51.9472  53.8771  54.3382  54.3721  55.0354
    55.9667  56.2392  57.9796  58.9501  60.7555  60.8567  62.0608  62.7587
    63.3852  64.3008

          k =-0.2500-0.7500 0.2500 (  2798 PWs)   bands (ev):

   -16.7196 -16.6555 -16.5898 -16.5565 -16.5476 -16.5381 -16.4761 -16.4221
   -16.3831 -16.3480  -1.9932   0.7942   4.5363   5.7859   9.5023  12.2369
    13.4743  14.2165  17.9073  19.2728  19.5476  20.3404  21.3347  24.7278
    25.8267  26.6355  27.6224  27.6247  28.0697  29.8761  32.0544  32.4078
    33.2601  34.9372  35.6902  36.1278  36.6440  38.0466  38.9585  40.4535
    41.5580  43.5013  43.7372  45.0785  45.6389  47.1698  48.7229  50.0946
    50.2154  50.7781  50.8973  51.9472  53.8771  54.3382  54.3721  55.0354
    55.9667  56.2392  57.9796  58.9501  60.7555  60.8567  62.0608  62.7587
    63.3852  64.3008

          k =-0.7500-0.2500-0.2500 (  2798 PWs)   bands (ev):

   -16.7196 -16.6555 -16.5898 -16.5565 -16.5476 -16.5382 -16.4761 -16.4221
   -16.3831 -16.3480  -1.9932   0.7942   4.5363   5.7859   9.5023  12.2369
    13.4743  14.2165  17.9073  19.2728  19.5476  20.3404  21.3347  24.7278
    25.8267  26.6355  27.6224  27.6247  28.0697  29.8761  32.0544  32.4078
    33.2601  34.9372  35.6902  36.1278  36.6440  38.0466  38.9585  40.4535
    41.5580  43.5013  43.7372  45.0785  45.6389  47.1698  48.7229  50.0946
    50.2154  50.7781  50.8973  51.9472  53.8771  54.3382  54.3721  55.0354
    55.9667  56.2392  57.9796  58.9501  60.7555  60.8567  62.0608  62.7587
    63.3852  64.3008

          k =-1.2500 0.2500-0.7500 (  2798 PWs)   bands (ev):

   -16.7196 -16.6555 -16.5898 -16.5565 -16.5476 -16.5381 -16.4761 -16.4221
   -16.3831 -16.3480  -1.9932   0.7942   4.5363   5.7859   9.5023  12.2369
    13.4743  14.2165  17.9073  19.2728  19.5476  20.3404  21.3347  24.7278
    25.8267  26.6355  27.6224  27.6247  28.0697  29.8761  32.0544  32.4078
    33.2601  34.9372  35.6902  36.1278  36.6440  38.0466  38.9585  40.4535
    41.5580  43.5013  43.7372  45.0785  45.6389  47.1698  48.7229  50.0946
    50.2154  50.7781  50.8973  51.9472  53.8771  54.3382  54.3721  55.0354
    55.9667  56.2392  57.9796  58.9501  60.7555  60.8567  62.0608  62.7587
    63.3852  64.3008

          k = 0.7500-0.7500 1.2500 (  2794 PWs)   bands (ev):

   -16.6797 -16.6555 -16.6555 -16.5820 -16.5820 -16.4719 -16.4314 -16.4314
   -16.3788 -16.3788  -3.6971   3.4670   7.2520   7.2520   8.5726  11.6796
    11.6796  13.6012  16.2066  16.3481  16.3481  18.8649  22.9623  22.9623
    25.8341  26.0602  26.0602  26.4404  33.7534  33.7535  34.9262  34.9712
    34.9712  36.7201  38.2467  38.3608  38.3608  42.2434  42.2434  42.7807
    42.7807  42.9051  43.5049  43.9085  44.0001  44.0001  47.4670  47.4670
    47.6011  48.0552  49.3863  49.3863  49.5672  53.6963  53.6963  54.7623
    54.7623  54.8161  56.1963  56.1963  56.8160  57.7728  60.5486  60.5486
    60.7104  61.7304

          k = 0.2500-0.2500 0.7500 (  2798 PWs)   bands (ev):

   -16.7196 -16.6555 -16.5898 -16.5565 -16.5476 -16.5381 -16.4761 -16.4221
   -16.3831 -16.3480  -1.9932   0.7942   4.5363   5.7859   9.5023  12.2369
    13.4743  14.2165  17.9073  19.2728  19.5476  20.3404  21.3347  24.7278
    25.8267  26.6355  27.6224  27.6247  28.0697  29.8761  32.0544  32.4078
    33.2601  34.9372  35.6902  36.1278  36.6440  38.0466  38.9585  40.4535
    41.5580  43.5013  43.7372  45.0785  45.6389  47.1698  48.7229  50.0946
    50.2154  50.7781  50.8973  51.9472  53.8771  54.3382  54.3721  55.0354
    55.9667  56.2392  57.9796  58.9501  60.7555  60.8567  62.0608  62.7587
    63.3852  64.3008

          k =-0.2500 0.2500 0.2500 (  2794 PWs)   bands (ev):

   -16.6797 -16.6555 -16.6555 -16.5820 -16.5820 -16.4719 -16.4314 -16.4314
   -16.3788 -16.3788  -3.6971   3.4670   7.2520   7.2520   8.5726  11.6796
    11.6796  13.6012  16.2066  16.3481  16.3481  18.8649  22.9623  22.9623
    25.8341  26.0602  26.0602  26.4404  33.7534  33.7535  34.9262  34.9712
    34.9712  36.7201  38.2467  38.3608  38.3608  42.2434  42.2434  42.7807
    42.7807  42.9051  43.5049  43.9085  44.0001  44.0001  47.4670  47.4670
    47.6011  48.0552  49.3863  49.3863  49.5672  53.6963  53.6963  54.7623
    54.7623  54.8161  56.1963  56.1963  56.8160  57.7728  60.5486  60.5486
    60.7104  61.7304

          k =-0.7500 0.7500-0.2500 (  2798 PWs)   bands (ev):

   -16.7196 -16.6555 -16.5898 -16.5565 -16.5476 -16.5381 -16.4761 -16.4221
   -16.3831 -16.3480  -1.9932   0.7942   4.5363   5.7859   9.5023  12.2369
    13.4743  14.2165  17.9073  19.2728  19.5476  20.3404  21.3347  24.7278
    25.8267  26.6355  27.6224  27.6247  28.0697  29.8761  32.0544  32.4078
    33.2601  34.9372  35.6902  36.1278  36.6440  38.0466  38.9585  40.4535
    41.5580  43.5013  43.7372  45.0785  45.6389  47.1698  48.7229  50.0946
    50.2154  50.7781  50.8973  51.9472  53.8771  54.3382  54.3721  55.0354
    55.9667  56.2392  57.9796  58.9501  60.7555  60.8567  62.0608  62.7587
    63.3852  64.3008

          k = 1.2500-0.2500 1.7500 (  2798 PWs)   bands (ev):

   -16.7196 -16.6555 -16.5898 -16.5565 -16.5476 -16.5382 -16.4761 -16.4221
   -16.3831 -16.3480  -1.9932   0.7942   4.5363   5.7859   9.5023  12.2369
    13.4743  14.2165  17.9073  19.2728  19.5476  20.3404  21.3347  24.7278
    25.8267  26.6355  27.6224  27.6247  28.0697  29.8761  32.0544  32.4078
    33.2601  34.9372  35.6902  36.1278  36.6440  38.0466  38.9585  40.4535
    41.5580  43.5013  43.7372  45.0785  45.6389  47.1698  48.7229  50.0946
    50.2154  50.7781  50.8973  51.9472  53.8771  54.3382  54.3721  55.0354
    55.9667  56.2392  57.9796  58.9501  60.7555  60.8567  62.0608  62.7587
    63.3852  64.3008

          k = 0.7500 0.2500 1.2500 (  2798 PWs)   bands (ev):

   -16.7196 -16.6555 -16.5898 -16.5565 -16.5476 -16.5381 -16.4761 -16.4221
   -16.3831 -16.3480  -1.9932   0.7942   4.5363   5.7859   9.5023  12.2369
    13.4743  14.2165  17.9073  19.2728  19.5476  20.3404  21.3347  24.7278
    25.8267  26.6355  27.6224  27.6247  28.0697  29.8761  32.0544  32.4078
    33.2601  34.9372  35.6902  36.1278  36.6440  38.0466  38.9585  40.4535
    41.5580  43.5013  43.7372  45.0785  45.6389  47.1698  48.7229  50.0946
    50.2154  50.7781  50.8973  51.9472  53.8771  54.3382  54.3721  55.0354
    55.9667  56.2392  57.9796  58.9501  60.7555  60.8567  62.0608  62.7587
    63.3852  64.3008

          k = 0.2500 0.7500 0.7500 (  2798 PWs)   bands (ev):

   -16.7196 -16.6555 -16.5898 -16.5565 -16.5476 -16.5382 -16.4761 -16.4221
   -16.3831 -16.3480  -1.9932   0.7942   4.5363   5.7859   9.5023  12.2369
    13.4743  14.2165  17.9073  19.2728  19.5476  20.3404  21.3347  24.7278
    25.8267  26.6355  27.6224  27.6247  28.0697  29.8761  32.0544  32.4078
    33.2601  34.9372  35.6902  36.1278  36.6440  38.0466  38.9585  40.4535
    41.5580  43.5013  43.7372  45.0785  45.6389  47.1698  48.7229  50.0946
    50.2154  50.7781  50.8973  51.9472  53.8771  54.3382  54.3721  55.0354
    55.9667  56.2392  57.9796  58.9501  60.7555  60.8567  62.0608  62.7587
    63.3852  64.3008

          k =-0.2500 1.2500 0.2500 (  2798 PWs)   bands (ev):

   -16.7196 -16.6555 -16.5898 -16.5565 -16.5476 -16.5381 -16.4761 -16.4221
   -16.3831 -16.3480  -1.9932   0.7942   4.5363   5.7859   9.5023  12.2369
    13.4743  14.2165  17.9073  19.2728  19.5476  20.3404  21.3347  24.7278
    25.8267  26.6355  27.6224  27.6247  28.0697  29.8761  32.0544  32.4078
    33.2601  34.9372  35.6902  36.1278  36.6440  38.0466  38.9585  40.4535
    41.5580  43.5013  43.7372  45.0785  45.6389  47.1698  48.7229  50.0946
    50.2154  50.7781  50.8973  51.9472  53.8771  54.3382  54.3721  55.0354
    55.9667  56.2392  57.9796  58.9501  60.7555  60.8567  62.0608  62.7587
    63.3852  64.3008

          k =-0.7500-2.2500 0.7500 (  2798 PWs)   bands (ev):

   -16.7196 -16.6555 -16.5898 -16.5565 -16.5476 -16.5381 -16.4761 -16.4221
   -16.3831 -16.3480  -1.9932   0.7942   4.5363   5.7859   9.5023  12.2369
    13.4743  14.2165  17.9073  19.2728  19.5476  20.3404  21.3347  24.7278
    25.8267  26.6355  27.6224  27.6247  28.0697  29.8761  32.0544  32.4078
    33.2601  34.9372  35.6902  36.1278  36.6440  38.0466  38.9585  40.4535
    41.5580  43.5013  43.7372  45.0785  45.6389  47.1698  48.7229  50.0946
    50.2154  50.7781  50.8973  51.9472  53.8771  54.3382  54.3721  55.0354
    55.9667  56.2392  57.9796  58.9501  60.7555  60.8567  62.0608  62.7587
    63.3852  64.3008

          k =-1.2500-1.7500 0.2500 (  2798 PWs)   bands (ev):

   -16.7196 -16.6555 -16.5898 -16.5565 -16.5476 -16.5382 -16.4761 -16.4221
   -16.3831 -16.3480  -1.9932   0.7942   4.5363   5.7859   9.5023  12.2369
    13.4743  14.2165  17.9073  19.2728  19.5476  20.3404  21.3347  24.7278
    25.8267  26.6355  27.6224  27.6247  28.0697  29.8761  32.0544  32.4078
    33.2601  34.9372  35.6902  36.1278  36.6440  38.0466  38.9585  40.4535
    41.5580  43.5013  43.7372  45.0785  45.6389  47.1698  48.7229  50.0946
    50.2154  50.7781  50.8973  51.9472  53.8771  54.3382  54.3721  55.0354
    55.9667  56.2392  57.9796  58.9501  60.7555  60.8567  62.0608  62.7587
    63.3852  64.3008

          k =-1.7500-1.2500-0.2500 (  2798 PWs)   bands (ev):

   -16.7196 -16.6555 -16.5898 -16.5565 -16.5476 -16.5381 -16.4761 -16.4221
   -16.3831 -16.3480  -1.9932   0.7942   4.5363   5.7859   9.5023  12.2369
    13.4743  14.2165  17.9073  19.2728  19.5476  20.3404  21.3347  24.7278
    25.8267  26.6355  27.6224  27.6247  28.0697  29.8761  32.0544  32.4078
    33.2601  34.9372  35.6902  36.1278  36.6440  38.0466  38.9585  40.4535
    41.5580  43.5013  43.7372  45.0785  45.6389  47.1698  48.7229  50.0946
    50.2154  50.7781  50.8973  51.9472  53.8771  54.3382  54.3721  55.0354
    55.9667  56.2392  57.9796  58.9501  60.7555  60.8567  62.0608  62.7587
    63.3852  64.3008

          k =-2.2500-0.7500-0.7500 (  2798 PWs)   bands (ev):

   -16.7196 -16.6555 -16.5898 -16.5565 -16.5476 -16.5382 -16.4761 -16.4221
   -16.3831 -16.3480  -1.9932   0.7942   4.5363   5.7859   9.5023  12.2369
    13.4743  14.2165  17.9073  19.2728  19.5476  20.3404  21.3347  24.7278
    25.8267  26.6355  27.6224  27.6247  28.0697  29.8761  32.0544  32.4078
    33.2601  34.9372  35.6902  36.1278  36.6440  38.0466  38.9585  40.4535
    41.5580  43.5013  43.7372  45.0785  45.6389  47.1698  48.7229  50.0946
    50.2154  50.7781  50.8973  51.9472  53.8771  54.3382  54.3721  55.0354
    55.9667  56.2392  57.9796  58.9501  60.7555  60.8567  62.0608  62.7587
    63.3852  64.3008

          k =-0.2500-1.7500 1.2500 (  2798 PWs)   bands (ev):

   -16.7196 -16.6555 -16.5898 -16.5565 -16.5476 -16.5381 -16.4761 -16.4221
   -16.3831 -16.3480  -1.9932   0.7942   4.5363   5.7859   9.5023  12.2369
    13.4743  14.2165  17.9073  19.2728  19.5476  20.3404  21.3347  24.7278
    25.8267  26.6355  27.6224  27.6247  28.0697  29.8761  32.0544  32.4078
    33.2601  34.9372  35.6902  36.1278  36.6440  38.0466  38.9585  40.4535
    41.5580  43.5013  43.7372  45.0785  45.6389  47.1698  48.7229  50.0946
    50.2154  50.7781  50.8973  51.9472  53.8771  54.3382  54.3721  55.0354
    55.9667  56.2392  57.9796  58.9501  60.7555  60.8567  62.0608  62.7587
    63.3852  64.3008

          k =-0.7500-1.2500 0.7500 (  2794 PWs)   bands (ev):

   -16.6797 -16.6555 -16.6555 -16.5820 -16.5820 -16.4719 -16.4314 -16.4314
   -16.3788 -16.3788  -3.6971   3.4670   7.2520   7.2520   8.5726  11.6796
    11.6796  13.6012  16.2066  16.3481  16.3481  18.8649  22.9623  22.9623
    25.8341  26.0602  26.0602  26.4404  33.7534  33.7535  34.9262  34.9712
    34.9712  36.7201  38.2467  38.3608  38.3608  42.2434  42.2434  42.7807
    42.7807  42.9051  43.5049  43.9085  44.0001  44.0001  47.4670  47.4670
    47.6011  48.0552  49.3863  49.3863  49.5672  53.6963  53.6963  54.7623
    54.7623  54.8161  56.1963  56.1963  56.8160  57.7728  60.5486  60.5486
    60.7104  61.7304

          k =-1.2500-0.7500 0.2500 (  2798 PWs)   bands (ev):

   -16.7196 -16.6555 -16.5898 -16.5565 -16.5476 -16.5381 -16.4761 -16.4221
   -16.3831 -16.3480  -1.9932   0.7942   4.5363   5.7859   9.5023  12.2369
    13.4743  14.2165  17.9073  19.2728  19.5476  20.3404  21.3347  24.7278
    25.8267  26.6355  27.6224  27.6247  28.0697  29.8761  32.0544  32.4078
    33.2601  34.9372  35.6902  36.1278  36.6440  38.0466  38.9585  40.4535
    41.5580  43.5013  43.7372  45.0785  45.6389  47.1698  48.7229  50.0946
    50.2154  50.7781  50.8973  51.9472  53.8771  54.3382  54.3721  55.0354
    55.9667  56.2392  57.9796  58.9501  60.7555  60.8567  62.0608  62.7587
    63.3852  64.3008

          k =-1.7500-0.2500-0.2500 (  2794 PWs)   bands (ev):

   -16.6797 -16.6555 -16.6555 -16.5820 -16.5820 -16.4719 -16.4314 -16.4314
   -16.3788 -16.3788  -3.6971   3.4670   7.2520   7.2520   8.5726  11.6796
    11.6796  13.6012  16.2066  16.3481  16.3481  18.8649  22.9623  22.9623
    25.8341  26.0602  26.0602  26.4404  33.7534  33.7535  34.9262  34.9712
    34.9712  36.7201  38.2467  38.3608  38.3608  42.2434  42.2434  42.7807
    42.7807  42.9051  43.5049  43.9085  44.0001  44.0001  47.4670  47.4670
    47.6011  48.0552  49.3863  49.3863  49.5672  53.6963  53.6963  54.7623
    54.7623  54.8161  56.1963  56.1963  56.8160  57.7728  60.5486  60.5486
    60.7104  61.7304

          k = 0.2500-1.2500 1.7500 (  2798 PWs)   bands (ev):

   -16.7196 -16.6555 -16.5898 -16.5565 -16.5476 -16.5381 -16.4761 -16.4221
   -16.3831 -16.3480  -1.9932   0.7942   4.5363   5.7859   9.5023  12.2369
    13.4743  14.2165  17.9073  19.2728  19.5476  20.3404  21.3347  24.7278
    25.8267  26.6355  27.6224  27.6247  28.0697  29.8761  32.0544  32.4078
    33.2601  34.9372  35.6902  36.1278  36.6440  38.0466  38.9585  40.4535
    41.5580  43.5013  43.7372  45.0785  45.6389  47.1698  48.7229  50.0946
    50.2154  50.7781  50.8973  51.9472  53.8771  54.3382  54.3721  55.0354
    55.9667  56.2392  57.9796  58.9501  60.7555  60.8567  62.0608  62.7587
    63.3852  64.3008

          k =-0.2500-0.7500 1.2500 (  2798 PWs)   bands (ev):

   -16.7196 -16.6555 -16.5898 -16.5565 -16.5476 -16.5382 -16.4761 -16.4221
   -16.3831 -16.3480  -1.9932   0.7942   4.5363   5.7859   9.5023  12.2369
    13.4743  14.2165  17.9073  19.2728  19.5476  20.3404  21.3347  24.7278
    25.8267  26.6355  27.6224  27.6247  28.0697  29.8761  32.0544  32.4078
    33.2601  34.9372  35.6902  36.1278  36.6440  38.0466  38.9585  40.4535
    41.5580  43.5013  43.7372  45.0785  45.6389  47.1698  48.7229  50.0946
    50.2154  50.7781  50.8973  51.9472  53.8771  54.3382  54.3721  55.0354
    55.9667  56.2392  57.9796  58.9501  60.7555  60.8567  62.0608  62.7587
    63.3852  64.3008

          k =-0.7500-0.2500 0.7500 (  2798 PWs)   bands (ev):

   -16.7196 -16.6555 -16.5898 -16.5565 -16.5476 -16.5381 -16.4761 -16.4221
   -16.3831 -16.3480  -1.9932   0.7942   4.5363   5.7859   9.5023  12.2369
    13.4743  14.2165  17.9073  19.2728  19.5476  20.3404  21.3347  24.7278
    25.8267  26.6355  27.6224  27.6247  28.0697  29.8761  32.0544  32.4078
    33.2601  34.9372  35.6902  36.1278  36.6440  38.0466  38.9585  40.4535
    41.5580  43.5013  43.7372  45.0785  45.6389  47.1698  48.7229  50.0946
    50.2154  50.7781  50.8973  51.9472  53.8771  54.3382  54.3721  55.0354
    55.9667  56.2392  57.9796  58.9501  60.7555  60.8567  62.0608  62.7587
    63.3852  64.3008

          k =-1.2500 0.2500 0.2500 (  2798 PWs)   bands (ev):

   -16.7196 -16.6555 -16.5898 -16.5565 -16.5476 -16.5382 -16.4761 -16.4221
   -16.3831 -16.3480  -1.9932   0.7942   4.5363   5.7859   9.5023  12.2369
    13.4743  14.2165  17.9073  19.2728  19.5476  20.3404  21.3347  24.7278
    25.8267  26.6355  27.6224  27.6247  28.0697  29.8761  32.0544  32.4078
    33.2601  34.9372  35.6902  36.1278  36.6440  38.0466  38.9585  40.4535
    41.5580  43.5013  43.7372  45.0785  45.6389  47.1698  48.7229  50.0946
    50.2154  50.7781  50.8973  51.9472  53.8771  54.3382  54.3721  55.0354
    55.9667  56.2392  57.9796  58.9501  60.7555  60.8567  62.0608  62.7587
    63.3852  64.3008

          k = 0.7500-0.7500 2.2500 (  2798 PWs)   bands (ev):

   -16.7196 -16.6555 -16.5898 -16.5565 -16.5476 -16.5381 -16.4761 -16.4221
   -16.3831 -16.3480  -1.9932   0.7942   4.5363   5.7859   9.5023  12.2369
    13.4743  14.2165  17.9073  19.2728  19.5476  20.3404  21.3347  24.7278
    25.8267  26.6355  27.6224  27.6247  28.0697  29.8761  32.0544  32.4078
    33.2601  34.9372  35.6902  36.1278  36.6440  38.0466  38.9585  40.4535
    41.5580  43.5013  43.7372  45.0785  45.6389  47.1698  48.7229  50.0946
    50.2154  50.7781  50.8973  51.9472  53.8771  54.3382  54.3721  55.0354
    55.9667  56.2392  57.9796  58.9501  60.7555  60.8567  62.0608  62.7587
    63.3852  64.3008

          k = 0.2500-0.2500 1.7500 (  2794 PWs)   bands (ev):

   -16.6797 -16.6555 -16.6555 -16.5820 -16.5820 -16.4719 -16.4314 -16.4314
   -16.3788 -16.3788  -3.6971   3.4670   7.2520   7.2520   8.5726  11.6796
    11.6796  13.6012  16.2066  16.3481  16.3481  18.8649  22.9623  22.9623
    25.8341  26.0602  26.0602  26.4404  33.7534  33.7535  34.9262  34.9712
    34.9712  36.7201  38.2467  38.3608  38.3608  42.2434  42.2434  42.7807
    42.7807  42.9051  43.5049  43.9085  44.0001  44.0001  47.4670  47.4670
    47.6011  48.0552  49.3863  49.3863  49.5672  53.6963  53.6963  54.7623
    54.7623  54.8161  56.1963  56.1963  56.8160  57.7728  60.5486  60.5486
    60.7104  61.7304

          k =-0.2500 0.2500 1.2500 (  2798 PWs)   bands (ev):

   -16.7196 -16.6555 -16.5898 -16.5565 -16.5476 -16.5381 -16.4761 -16.4221
   -16.3831 -16.3480  -1.9932   0.7942   4.5363   5.7859   9.5023  12.2369
    13.4743  14.2165  17.9073  19.2728  19.5476  20.3404  21.3347  24.7278
    25.8267  26.6355  27.6224  27.6247  28.0697  29.8761  32.0544  32.4078
    33.2601  34.9372  35.6902  36.1278  36.6440  38.0466  38.9585  40.4535
    41.5580  43.5013  43.7372  45.0785  45.6389  47.1698  48.7229  50.0946
    50.2154  50.7781  50.8973  51.9472  53.8771  54.3382  54.3721  55.0354
    55.9667  56.2392  57.9796  58.9501  60.7555  60.8567  62.0608  62.7587
    63.3852  64.3008

          k =-0.7500 0.7500 0.7500 (  2794 PWs)   bands (ev):

   -16.6797 -16.6555 -16.6555 -16.5820 -16.5820 -16.4719 -16.4314 -16.4314
   -16.3788 -16.3788  -3.6971   3.4670   7.2520   7.2520   8.5726  11.6796
    11.6796  13.6012  16.2066  16.3481  16.3481  18.8649  22.9623  22.9623
    25.8341  26.0602  26.0602  26.4404  33.7534  33.7535  34.9262  34.9712
    34.9712  36.7201  38.2467  38.3608  38.3608  42.2434  42.2434  42.7807
    42.7807  42.9051  43.5049  43.9085  44.0001  44.0001  47.4670  47.4670
    47.6011  48.0552  49.3863  49.3863  49.5672  53.6963  53.6963  54.7623
    54.7623  54.8161  56.1963  56.1963  56.8160  57.7728  60.5486  60.5486
    60.7104  61.7304

     highest occupied, lowest unoccupied level (ev):     8.0931    8.1243

!    total energy              =    -422.81424394 Ry
     Harris-Foulkes estimate   =    -422.81424394 Ry
     estimated scf accuracy    <          1.5E-10 Ry

     The total energy is the sum of the following terms:

     one-electron contribution =    -278.27470310 Ry
     hartree contribution      =     164.37431858 Ry
     xc contribution           =    -113.70225128 Ry
     ewald contribution        =    -195.21160814 Ry

     convergence has been achieved in   7 iterations

     Writing output data file germ.save
  
  
 &&&&&&&&&&&&&&&&&&&&&&&&&&&&&&&&&&&&&&&&&&&&&&&&&&&&&&&&&&&&&&&&&&
 --- Entering QEdark v1.1.0
 &&&&&&&&&&&&&&&&&&&&&&&&&&&&&&&&&&&&&&&&&&&&&&&&&&&&&&&&&&&&&&&&&&
  
  
  
  Spin-polarized calculation == FALSE
  
  
 Reading DM data from dm.in               
            -------             
  calculation_mode set to multimass
  Calculating momentum-integrated, energy-dependent 
  DM-electron scattering rates for multiple DM masses.
            -------             
   npwx      ==        2798
   nbnd      ==          66
   nksf      ==          77
   numval    ==          14
   numvaltot ==          14
   numcond   ==          52
   numcondtot==          52
   cell vol  ==    316.42688329639032      bohr^(3)
   1BZ vol   ==   0.78391004853419866      bohr^(-3)
  
 Performing scissor correction to the band energies
 Band gap has been set to    1.1100000000000001      eV
  
 Creating bins for C integral ...
 bintype=           1
 Energy bin size=   1.3605692530000002      eV
  
  
 Iterating... @ ik2=           1
 Iterating... @ ik2=          33
 Iterating... @ ik2=          25
 Iterating... @ ik2=          71
 Iterating... @ ik2=          17
 Iterating... @ ik2=          49
 Iterating... @ ik2=          41
 Iterating... @ ik2=          57
 Iterating... @ ik2=          64
 Iterating... @ ik2=           9
 Iterating... @ ik2=           2
 Iterating... @ ik2=          10
 Iterating... @ ik2=          58
 Iterating... @ ik2=          72
 Iterating... @ ik2=          42
 Iterating... @ ik2=          65
 Iterating... @ ik2=          34
 Iterating... @ ik2=          26
 Iterating... @ ik2=          18
 Iterating... @ ik2=          50
 Iterating... @ ik2=           3
 Iterating... @ ik2=          11
 Iterating... @ ik2=          73
 Iterating... @ ik2=          35
 Iterating... @ ik2=          59
 Iterating... @ ik2=          43
 Iterating... @ ik2=          19
 Iterating... @ ik2=          51
 Iterating... @ ik2=          66
 Iterating... @ ik2=          27
 Iterating... @ ik2=           4
 Iterating... @ ik2=          12
 Iterating... @ ik2=          74
 Iterating... @ ik2=          36
 Iterating... @ ik2=          20
 Iterating... @ ik2=          60
 Iterating... @ ik2=          44
 Iterating... @ ik2=          52
 Iterating... @ ik2=          67
 Iterating... @ ik2=          28
 Iterating... @ ik2=           5
 Iterating... @ ik2=          13
 Iterating... @ ik2=          37
 Iterating... @ ik2=          75
 Iterating... @ ik2=          61
 Iterating... @ ik2=          21
 Iterating... @ ik2=          53
 Iterating... @ ik2=          45
 Iterating... @ ik2=          68
 Iterating... @ ik2=          29
 Iterating... @ ik2=           6
 Iterating... @ ik2=          14
 Iterating... @ ik2=          38
 Iterating... @ ik2=          76
 Iterating... @ ik2=          62
 Iterating... @ ik2=          54
 Iterating... @ ik2=          22
 Iterating... @ ik2=          46
 Iterating... @ ik2=          69
 Iterating... @ ik2=          30
 Iterating... @ ik2=           7
 Iterating... @ ik2=          15
 Iterating... @ ik2=          77
 Iterating... @ ik2=          39
 Iterating... @ ik2=          55
 Iterating... @ ik2=          23
 Iterating... @ ik2=          63
 Iterating... @ ik2=          47
 Iterating... @ ik2=          70
 Iterating... @ ik2=          31
 Iterating... @ ik2=           8
 Iterating... @ ik2=          16
 Iterating... @ ik2=          40
 Iterating... @ ik2=          56
 Iterating... @ ik2=          24
 Iterating... @ ik2=          48
 Iterating... @ ik2=          32
  
  Calculation finished 
  
 Writing output to C.01.dat            
 Writing output to C.02.dat            
 Writing output to C.03.dat            
 Writing output to C.04.dat            
 Writing output to C.05.dat            
 Writing output to C.06.dat            
 Writing output to C.07.dat            
 Writing output to C.08.dat            
 Writing output to C.09.dat            
 Writing output to C.10.dat            
 Writing output to C.11.dat            
 Writing output to C.12.dat            
 Writing output to C.13.dat            
 Writing output to C.14.dat            
 Writing output to C.15.dat            
 Writing output to C.16.dat            
 Writing output to C.17.dat            
 Writing output to C.18.dat            
 Writing output to C.19.dat            
 Writing output to C.20.dat            
 Writing output to C.21.dat            
 Writing output to C.22.dat            
 Writing output to C.23.dat            
 Writing output to C.24.dat            
 Writing output to C.25.dat            
 Writing output to C.26.dat            
 Writing output to C.27.dat            
 Writing output to C.28.dat            
 Writing output to C.29.dat            
 Writing output to C.30.dat            
 Writing output to C.31.dat            
 Writing output to C.32.dat            
 Writing output to C.33.dat            
 Writing output to C.34.dat            
 Writing output to C.35.dat            
 Writing output to C.36.dat            
 Writing output to C.37.dat            
 Writing output to C.38.dat            
 Writing output to C.39.dat            
 Writing output to C.40.dat            
 Writing output to C.41.dat            
 Writing output to C.42.dat            
 Writing output to C.43.dat            
 Writing output to C.44.dat            
 Writing output to C.45.dat            
 Writing output to C.46.dat            
 Writing output to C.47.dat            
 Writing output to C.48.dat            
 Writing output to C.49.dat            
 Writing output to C.50.dat            
 Writing output to C.51.dat            
 Writing output to C.52.dat            
 Writing output to C.53.dat            
 Writing output to C.54.dat            
 Writing output to C.55.dat            
 Writing output to C.56.dat            
 Writing output to C.57.dat            
 Writing output to C.58.dat            
 Writing output to C.59.dat            
 Writing output to C.60.dat            
 Writing output to C.61.dat            
 Writing output to C.62.dat            
 Writing output to C.63.dat            
 Writing output to C.64.dat            
 Writing output to C.65.dat            
 Writing output to C.66.dat            
 Writing output to C.67.dat            
  
  
 &&&&&&&&&&&&&&&&&&&&&&&&&&&&&&&&&&&&&&&&&&&&&&&&&&&&&&&&&&&&&&&&&&
 -- Exiting QEdark v1.1.0
 &&&&&&&&&&&&&&&&&&&&&&&&&&&&&&&&&&&&&&&&&&&&&&&&&&&&&&&&&&&&&&&&&&
  
  

     init_run     :    119.09s CPU     19.42s WALL (       1 calls)
     electrons    :   3180.96s CPU    613.90s WALL (       1 calls)

     Called by init_run:
     wfcinit      :    117.69s CPU     18.49s WALL (       1 calls)
     potinit      :      0.08s CPU      0.05s WALL (       1 calls)

     Called by electrons:
     c_bands      :   2728.75s CPU    563.77s WALL (       8 calls)
     sum_band     :    448.47s CPU     49.52s WALL (       8 calls)
     v_of_rho     :      0.60s CPU      0.29s WALL (       8 calls)
     newd         :      3.59s CPU      0.36s WALL (       8 calls)
     mix_rho      :      0.02s CPU      0.02s WALL (       8 calls)

     Called by c_bands:
     init_us_2    :     11.34s CPU      1.17s WALL (    1309 calls)
     cegterg      :   2715.20s CPU    559.75s WALL (     616 calls)

     Called by *egterg:
     h_psi        :   2536.98s CPU    285.10s WALL (    2751 calls)
     s_psi        :     18.59s CPU     17.49s WALL (    2751 calls)
     g_psi        :      1.46s CPU      1.46s WALL (    2058 calls)
     cdiaghg      :     50.88s CPU     50.89s WALL (    2597 calls)

     Called by h_psi:
     add_vuspsi   :     19.54s CPU     17.51s WALL (    2751 calls)

     General routines
     calbec       :     64.27s CPU     23.46s WALL (    3367 calls)
     fft          :      0.51s CPU      0.14s WALL (     106 calls)
     fftw         :   2743.06s CPU    276.92s WALL (  277658 calls)
     davcio       :      0.00s CPU      0.08s WALL (      77 calls)


     PWSCF        :    15d    4h12m CPU        1d   14h18m WALL


   This run was terminated on:  12:34: 0  31Oct2019            

=------------------------------------------------------------------------------=
   JOB DONE.
=------------------------------------------------------------------------------=
