
     Program PWSCF v.5.1.2 starts on 28Oct2019 at 19:54: 2 

     This program is part of the open-source Quantum ESPRESSO suite
     for quantum simulation of materials; please cite
         "P. Giannozzi et al., J. Phys.:Condens. Matter 21 395502 (2009);
          URL http://www.quantum-espresso.org", 
     in publications or presentations arising from this work. More details at
     http://www.quantum-espresso.org/quote

     Serial multi-threaded version, running on   10 processor cores
     Waiting for input...
     Reading input from standard input
     Message from routine read_cards :
     DEPRECATED: no units specified in ATOMIC_POSITIONS card
     Message from routine read_cards :
     ATOMIC_POSITIONS: units set to alat

     Current dimensions of program PWSCF are:
     Max number of different atomic species (ntypx) = 10
     Max number of k-points (npk) =  40000
     Max angular momentum in pseudopotentials (lmaxx) =  3

     G-vector sticks info
     --------------------
     sticks:   dense  smooth     PW     G-vecs:    dense   smooth      PW
     Sum         955     955    337                19579    19579    4015



     bravais-lattice index     =            2
     lattice parameter (alat)  =      10.3305  a.u.
     unit-cell volume          =     275.6154 (a.u.)^3
     number of atoms/cell      =            2
     number of atomic types    =            1
     number of electrons       =         8.00
     number of Kohn-Sham states=           56
     kinetic-energy cutoff     =      65.0000  Ry
     charge density cutoff     =     260.0000  Ry
     convergence threshold     =      1.0E-08
     mixing beta               =       0.7000
     number of iterations used =            8  plain     mixing
     Exchange-correlation      = PBE ( 1  4  3  4 0 0)

     celldm(1)=  10.330495  celldm(2)=   0.000000  celldm(3)=   0.000000
     celldm(4)=   0.000000  celldm(5)=   0.000000  celldm(6)=   0.000000

     crystal axes: (cart. coord. in units of alat)
               a(1) = (  -0.500000   0.000000   0.500000 )  
               a(2) = (   0.000000   0.500000   0.500000 )  
               a(3) = (  -0.500000   0.500000   0.000000 )  

     reciprocal axes: (cart. coord. in units 2 pi/alat)
               b(1) = ( -1.000000 -1.000000  1.000000 )  
               b(2) = (  1.000000  1.000000  1.000000 )  
               b(3) = ( -1.000000  1.000000 -1.000000 )  


     PseudoPot. # 1 for Si read from file:
     ./Si.pbe-n-rrkjus_psl.0.1.UPF
     MD5 check sum: 7b4bf2ea543dc08298462eff3fb52eea
     Pseudo is Ultrasoft + core correction, Zval =  4.0
     Generated using "atomic" code by A. Dal Corso  v.5.0.2 svn rev. 9415
     Using radial grid of 1141 points,  4 beta functions with: 
                l(1) =   0
                l(2) =   0
                l(3) =   1
                l(4) =   1
     Q(r) pseudized with 0 coefficients 


     atomic species   valence    mass     pseudopotential
        Si             4.00    28.08600     Si( 1.00)

     No symmetry found



   Cartesian axes

     site n.     atom                  positions (alat units)
         1           Si  tau(   1) = (   0.0000000   0.0000000   0.0000000  )
         2           Si  tau(   2) = (   0.2500000   0.2500000   0.2500000  )

     number of k points=    77
                       cart. coord. in units 2pi/alat
        k(    1) = (   0.0000000   0.0000000   0.0000000), wk =   0.0259740
        k(    2) = (   0.0000000   1.0000000   0.0000000), wk =   0.0259740
        k(    3) = (  -1.0000000   0.0000000   0.0000000), wk =   0.0259740
        k(    4) = (   0.0000000   0.0000000   1.0000000), wk =   0.0259740
        k(    5) = (   0.0000000  -1.0000000   0.0000000), wk =   0.0259740
        k(    6) = (   1.0000000   0.0000000   0.0000000), wk =   0.0259740
        k(    7) = (   0.0000000   0.0000000  -1.0000000), wk =   0.0259740
        k(    8) = (   1.0000000   0.0000000   1.0000000), wk =   0.0259740
        k(    9) = (  -1.0000000   0.0000000  -1.0000000), wk =   0.0259740
        k(   10) = (   0.0000000  -1.0000000   1.0000000), wk =   0.0259740
        k(   11) = (   0.0000000   1.0000000  -1.0000000), wk =   0.0259740
        k(   12) = (  -1.0000000  -1.0000000   0.0000000), wk =   0.0259740
        k(   13) = (   1.0000000   1.0000000   0.0000000), wk =   0.0259740
        k(   14) = (   0.7500000  -0.7500000  -0.7500000), wk =   0.0259740
        k(   15) = (   0.2500000  -0.2500000  -1.2500000), wk =   0.0259740
        k(   16) = (  -0.2500000   0.2500000  -1.7500000), wk =   0.0259740
        k(   17) = (  -0.7500000   0.7500000  -2.2500000), wk =   0.0259740
        k(   18) = (   1.2500000  -0.2500000  -0.2500000), wk =   0.0259740
        k(   19) = (   0.7500000   0.2500000  -0.7500000), wk =   0.0259740
        k(   20) = (   0.2500000   0.7500000  -1.2500000), wk =   0.0259740
        k(   21) = (  -0.2500000   1.2500000  -1.7500000), wk =   0.0259740
        k(   22) = (   1.7500000   0.2500000   0.2500000), wk =   0.0259740
        k(   23) = (   1.2500000   0.7500000  -0.2500000), wk =   0.0259740
        k(   24) = (   0.7500000   1.2500000  -0.7500000), wk =   0.0259740
        k(   25) = (   0.2500000   1.7500000  -1.2500000), wk =   0.0259740
        k(   26) = (   2.2500000   0.7500000   0.7500000), wk =   0.0259740
        k(   27) = (   1.7500000   1.2500000   0.2500000), wk =   0.0259740
        k(   28) = (   1.2500000   1.7500000  -0.2500000), wk =   0.0259740
        k(   29) = (   0.7500000   2.2500000  -0.7500000), wk =   0.0259740
        k(   30) = (   0.2500000  -1.2500000  -0.2500000), wk =   0.0259740
        k(   31) = (  -0.2500000  -0.7500000  -0.7500000), wk =   0.0259740
        k(   32) = (  -0.7500000  -0.2500000  -1.2500000), wk =   0.0259740
        k(   33) = (  -1.2500000   0.2500000  -1.7500000), wk =   0.0259740
        k(   34) = (   0.7500000  -0.7500000   0.2500000), wk =   0.0259740
        k(   35) = (   0.2500000  -0.2500000  -0.2500000), wk =   0.0259740
        k(   36) = (  -0.2500000   0.2500000  -0.7500000), wk =   0.0259740
        k(   37) = (  -0.7500000   0.7500000  -1.2500000), wk =   0.0259740
        k(   38) = (   1.2500000  -0.2500000   0.7500000), wk =   0.0259740
        k(   39) = (   0.7500000   0.2500000   0.2500000), wk =   0.0259740
        k(   40) = (   0.2500000   0.7500000  -0.2500000), wk =   0.0259740
        k(   41) = (  -0.2500000   1.2500000  -0.7500000), wk =   0.0259740
        k(   42) = (   1.7500000   0.2500000   1.2500000), wk =   0.0259740
        k(   43) = (   1.2500000   0.7500000   0.7500000), wk =   0.0259740
        k(   44) = (   0.7500000   1.2500000   0.2500000), wk =   0.0259740
        k(   45) = (   0.2500000   1.7500000  -0.2500000), wk =   0.0259740
        k(   46) = (  -0.2500000  -1.7500000   0.2500000), wk =   0.0259740
        k(   47) = (  -0.7500000  -1.2500000  -0.2500000), wk =   0.0259740
        k(   48) = (  -1.2500000  -0.7500000  -0.7500000), wk =   0.0259740
        k(   49) = (  -1.7500000  -0.2500000  -1.2500000), wk =   0.0259740
        k(   50) = (   0.2500000  -1.2500000   0.7500000), wk =   0.0259740
        k(   51) = (  -0.2500000  -0.7500000   0.2500000), wk =   0.0259740
        k(   52) = (  -0.7500000  -0.2500000  -0.2500000), wk =   0.0259740
        k(   53) = (  -1.2500000   0.2500000  -0.7500000), wk =   0.0259740
        k(   54) = (   0.7500000  -0.7500000   1.2500000), wk =   0.0259740
        k(   55) = (   0.2500000  -0.2500000   0.7500000), wk =   0.0259740
        k(   56) = (  -0.2500000   0.2500000   0.2500000), wk =   0.0259740
        k(   57) = (  -0.7500000   0.7500000  -0.2500000), wk =   0.0259740
        k(   58) = (   1.2500000  -0.2500000   1.7500000), wk =   0.0259740
        k(   59) = (   0.7500000   0.2500000   1.2500000), wk =   0.0259740
        k(   60) = (   0.2500000   0.7500000   0.7500000), wk =   0.0259740
        k(   61) = (  -0.2500000   1.2500000   0.2500000), wk =   0.0259740
        k(   62) = (  -0.7500000  -2.2500000   0.7500000), wk =   0.0259740
        k(   63) = (  -1.2500000  -1.7500000   0.2500000), wk =   0.0259740
        k(   64) = (  -1.7500000  -1.2500000  -0.2500000), wk =   0.0259740
        k(   65) = (  -2.2500000  -0.7500000  -0.7500000), wk =   0.0259740
        k(   66) = (  -0.2500000  -1.7500000   1.2500000), wk =   0.0259740
        k(   67) = (  -0.7500000  -1.2500000   0.7500000), wk =   0.0259740
        k(   68) = (  -1.2500000  -0.7500000   0.2500000), wk =   0.0259740
        k(   69) = (  -1.7500000  -0.2500000  -0.2500000), wk =   0.0259740
        k(   70) = (   0.2500000  -1.2500000   1.7500000), wk =   0.0259740
        k(   71) = (  -0.2500000  -0.7500000   1.2500000), wk =   0.0259740
        k(   72) = (  -0.7500000  -0.2500000   0.7500000), wk =   0.0259740
        k(   73) = (  -1.2500000   0.2500000   0.2500000), wk =   0.0259740
        k(   74) = (   0.7500000  -0.7500000   2.2500000), wk =   0.0259740
        k(   75) = (   0.2500000  -0.2500000   1.7500000), wk =   0.0259740
        k(   76) = (  -0.2500000   0.2500000   1.2500000), wk =   0.0259740
        k(   77) = (  -0.7500000   0.7500000   0.7500000), wk =   0.0259740

     Dense  grid:    19579 G-vectors     FFT dimensions: (  40,  40,  40)

     Largest allocated arrays     est. size (Mb)     dimensions
        Kohn-Sham Wavefunctions         2.09 Mb     (    2451,   56)
        NL pseudopotentials             0.60 Mb     (    2451,   16)
        Each V/rho on FFT grid          0.98 Mb     (   64000)
        Each G-vector array             0.15 Mb     (   19579)
        G-vector shells                 0.00 Mb     (     236)
     Largest temporary arrays     est. size (Mb)     dimensions
        Auxiliary wavefunctions         8.38 Mb     (    2451,  224)
        Each subspace H/S matrix        0.77 Mb     (     224,  224)
        Each <psi_i|beta_j> matrix      0.01 Mb     (      16,   56)
        Arrays for rho mixing           7.81 Mb     (   64000,    8)

     Initial potential from superposition of free atoms

     starting charge    7.99888, renormalised to    8.00000
     Starting wfc are    8 randomized atomic wfcs +   48 random wfc

     total cpu time spent up to now is       18.2 secs

     per-process dynamical memory:   180.4 Mb

     Self-consistent Calculation

     iteration #  1     ecut=    65.00 Ry     beta=0.70
     Davidson diagonalization with overlap
     ethr =  1.00E-02,  avg # of iterations =  5.0

     Threshold (ethr) on eigenvalues was too large:
     Diagonalizing with lowered threshold

     Davidson diagonalization with overlap
     ethr =  8.48E-04,  avg # of iterations =  3.2

     total cpu time spent up to now is      176.4 secs

     total energy              =     -22.83320587 Ry
     Harris-Foulkes estimate   =     -22.84936139 Ry
     estimated scf accuracy    <       0.06780470 Ry

     iteration #  2     ecut=    65.00 Ry     beta=0.70
     Davidson diagonalization with overlap
     ethr =  8.48E-04,  avg # of iterations =  1.1

     total cpu time spent up to now is      218.7 secs

     total energy              =     -22.83617431 Ry
     Harris-Foulkes estimate   =     -22.83612006 Ry
     estimated scf accuracy    <       0.00267811 Ry

     iteration #  3     ecut=    65.00 Ry     beta=0.70
     Davidson diagonalization with overlap
     ethr =  3.35E-05,  avg # of iterations =  5.4

     total cpu time spent up to now is      270.9 secs

     total energy              =     -22.83624501 Ry
     Harris-Foulkes estimate   =     -22.83622437 Ry
     estimated scf accuracy    <       0.00006113 Ry

     iteration #  4     ecut=    65.00 Ry     beta=0.70
     Davidson diagonalization with overlap
     ethr =  7.64E-07,  avg # of iterations =  5.9

     total cpu time spent up to now is      337.7 secs

     total energy              =     -22.83624984 Ry
     Harris-Foulkes estimate   =     -22.83624901 Ry
     estimated scf accuracy    <       0.00000062 Ry

     iteration #  5     ecut=    65.00 Ry     beta=0.70
     Davidson diagonalization with overlap
     ethr =  7.76E-09,  avg # of iterations =  3.5

     total cpu time spent up to now is      408.3 secs

     total energy              =     -22.83625013 Ry
     Harris-Foulkes estimate   =     -22.83624997 Ry
     estimated scf accuracy    <       0.00000006 Ry

     iteration #  6     ecut=    65.00 Ry     beta=0.70
     Davidson diagonalization with overlap
     ethr =  7.32E-10,  avg # of iterations =  3.9

     total cpu time spent up to now is      482.8 secs

     End of self-consistent calculation

          k = 0.0000 0.0000 0.0000 (  2421 PWs)   bands (ev):

    -5.7699   6.0461   6.0461   6.1102   8.5649   8.6138   8.6138   9.2028
    13.7590  13.7590  13.9794  17.2214  17.2214  17.2483  21.4159  28.9287
    28.9287  28.9601  30.0018  30.0018  31.3941  31.3941  31.4665  34.9527
    34.9887  34.9887  40.5132  40.5440  40.5440  43.9458  44.2808  44.2808
    46.1794  46.1794  47.7349  47.7349  47.7392  49.5083  49.5083  49.5328
    50.0332  50.5311  50.5311  50.5431  50.5815  50.5815  50.6808  51.9268
    51.9704  51.9704  55.9495  57.0031  57.0031  57.0302  57.2923  57.2923

          k = 0.0000 1.0000 0.0000 (  2450 PWs)   bands (ev):

    -1.7198  -1.6651   3.2451   3.2632   6.7938   6.8227  15.9768  16.0025
    16.9767  16.9976  18.4844  18.5114  18.8637  18.8806  24.7840  24.8040
    25.5931  25.6448  26.0510  26.0580  27.2818  27.3024  31.2625  31.2832
    35.0861  35.1820  39.8307  39.8581  39.9938  40.0298  41.4372  41.4482
    43.8140  43.8310  45.1747  45.2007  46.2772  46.3014  47.4569  47.4622
    50.5274  50.5583  54.4019  54.4041  55.8322  55.8427  59.0332  59.0515
    61.6235  61.6561  62.5831  62.5982  62.6014  62.6176  62.9923  63.0174

          k =-1.0000 0.0000 0.0000 (  2450 PWs)   bands (ev):

    -1.7198  -1.6651   3.2451   3.2632   6.7938   6.8227  15.9768  16.0025
    16.9767  16.9976  18.4844  18.5114  18.8637  18.8806  24.7840  24.8040
    25.5931  25.6448  26.0510  26.0580  27.2818  27.3024  31.2625  31.2832
    35.0861  35.1820  39.8307  39.8581  39.9938  40.0298  41.4372  41.4482
    43.8140  43.8310  45.1747  45.2007  46.2772  46.3014  47.4569  47.4622
    50.5274  50.5583  54.4019  54.4041  55.8322  55.8427  59.0332  59.0515
    61.6235  61.6561  62.5831  62.5982  62.6014  62.6176  62.9923  63.0174

          k = 0.0000 0.0000 1.0000 (  2450 PWs)   bands (ev):

    -1.7198  -1.6651   3.2451   3.2632   6.7938   6.8227  15.9768  16.0025
    16.9767  16.9976  18.4844  18.5114  18.8637  18.8806  24.7840  24.8040
    25.5931  25.6448  26.0510  26.0580  27.2818  27.3024  31.2625  31.2832
    35.0861  35.1820  39.8307  39.8581  39.9938  40.0298  41.4372  41.4482
    43.8140  43.8310  45.1747  45.2007  46.2772  46.3014  47.4569  47.4622
    50.5274  50.5583  54.4019  54.4041  55.8322  55.8427  59.0332  59.0515
    61.6235  61.6561  62.5831  62.5982  62.6014  62.6176  62.9923  63.0174

          k = 0.0000-1.0000 0.0000 (  2450 PWs)   bands (ev):

    -1.7198  -1.6651   3.2451   3.2632   6.7938   6.8227  15.9768  16.0025
    16.9767  16.9976  18.4844  18.5114  18.8637  18.8806  24.7840  24.8040
    25.5931  25.6448  26.0510  26.0580  27.2818  27.3024  31.2625  31.2832
    35.0861  35.1820  39.8307  39.8581  39.9938  40.0298  41.4372  41.4482
    43.8140  43.8310  45.1747  45.2007  46.2772  46.3014  47.4569  47.4622
    50.5274  50.5583  54.4019  54.4041  55.8322  55.8427  59.0332  59.0515
    61.6235  61.6561  62.5831  62.5982  62.6014  62.6176  62.9923  63.0174

          k = 1.0000 0.0000 0.0000 (  2450 PWs)   bands (ev):

    -1.7198  -1.6651   3.2451   3.2632   6.7938   6.8227  15.9768  16.0025
    16.9767  16.9976  18.4844  18.5114  18.8637  18.8806  24.7840  24.8040
    25.5931  25.6448  26.0510  26.0580  27.2818  27.3024  31.2625  31.2832
    35.0861  35.1820  39.8307  39.8581  39.9938  40.0298  41.4372  41.4482
    43.8140  43.8310  45.1747  45.2007  46.2772  46.3014  47.4569  47.4622
    50.5274  50.5583  54.4019  54.4041  55.8322  55.8427  59.0332  59.0515
    61.6235  61.6561  62.5831  62.5982  62.6014  62.6176  62.9923  63.0174

          k = 0.0000 0.0000-1.0000 (  2450 PWs)   bands (ev):

    -1.7198  -1.6651   3.2451   3.2632   6.7938   6.8227  15.9768  16.0025
    16.9767  16.9976  18.4844  18.5114  18.8637  18.8806  24.7840  24.8040
    25.5931  25.6448  26.0510  26.0580  27.2818  27.3024  31.2625  31.2832
    35.0861  35.1820  39.8307  39.8581  39.9938  40.0298  41.4372  41.4482
    43.8140  43.8310  45.1747  45.2007  46.2772  46.3014  47.4569  47.4622
    50.5274  50.5583  54.4019  54.4041  55.8322  55.8427  59.0332  59.0515
    61.6235  61.6561  62.5831  62.5982  62.6014  62.6176  62.9923  63.0174

          k = 1.0000 0.0000 1.0000 (  2450 PWs)   bands (ev):

    -1.7198  -1.6651   3.2451   3.2632   6.7938   6.8227  15.9768  16.0025
    16.9767  16.9976  18.4844  18.5114  18.8637  18.8806  24.7840  24.8040
    25.5931  25.6448  26.0510  26.0580  27.2818  27.3024  31.2625  31.2832
    35.0861  35.1820  39.8307  39.8581  39.9938  40.0298  41.4372  41.4482
    43.8140  43.8310  45.1747  45.2007  46.2772  46.3014  47.4569  47.4622
    50.5274  50.5583  54.4019  54.4041  55.8322  55.8427  59.0332  59.0515
    61.6235  61.6561  62.5831  62.5982  62.6014  62.6176  62.9923  63.0174

          k =-1.0000 0.0000-1.0000 (  2450 PWs)   bands (ev):

    -1.7198  -1.6651   3.2451   3.2632   6.7938   6.8227  15.9768  16.0025
    16.9767  16.9976  18.4844  18.5114  18.8637  18.8806  24.7840  24.8040
    25.5931  25.6448  26.0510  26.0580  27.2818  27.3024  31.2625  31.2832
    35.0861  35.1820  39.8307  39.8581  39.9938  40.0298  41.4372  41.4482
    43.8140  43.8310  45.1747  45.2007  46.2772  46.3014  47.4569  47.4622
    50.5274  50.5583  54.4019  54.4041  55.8322  55.8427  59.0332  59.0515
    61.6235  61.6561  62.5831  62.5982  62.6014  62.6176  62.9923  63.0174

          k = 0.0000-1.0000 1.0000 (  2450 PWs)   bands (ev):

    -1.7198  -1.6651   3.2451   3.2632   6.7938   6.8227  15.9768  16.0025
    16.9767  16.9976  18.4844  18.5114  18.8637  18.8806  24.7840  24.8040
    25.5931  25.6448  26.0510  26.0580  27.2818  27.3024  31.2625  31.2832
    35.0861  35.1820  39.8307  39.8581  39.9938  40.0298  41.4372  41.4482
    43.8140  43.8310  45.1747  45.2007  46.2772  46.3014  47.4569  47.4622
    50.5274  50.5583  54.4019  54.4041  55.8322  55.8427  59.0332  59.0515
    61.6235  61.6561  62.5831  62.5982  62.6014  62.6176  62.9923  63.0174

          k = 0.0000 1.0000-1.0000 (  2450 PWs)   bands (ev):

    -1.7198  -1.6651   3.2451   3.2632   6.7938   6.8227  15.9768  16.0025
    16.9767  16.9976  18.4844  18.5114  18.8637  18.8806  24.7840  24.8040
    25.5931  25.6448  26.0510  26.0580  27.2818  27.3024  31.2625  31.2832
    35.0861  35.1820  39.8307  39.8581  39.9938  40.0298  41.4372  41.4482
    43.8140  43.8310  45.1747  45.2007  46.2772  46.3014  47.4569  47.4622
    50.5274  50.5583  54.4019  54.4041  55.8322  55.8427  59.0332  59.0515
    61.6235  61.6561  62.5831  62.5982  62.6014  62.6176  62.9923  63.0174

          k =-1.0000-1.0000 0.0000 (  2450 PWs)   bands (ev):

    -1.7198  -1.6651   3.2451   3.2632   6.7938   6.8227  15.9768  16.0025
    16.9767  16.9976  18.4844  18.5114  18.8637  18.8806  24.7840  24.8040
    25.5931  25.6448  26.0510  26.0580  27.2818  27.3024  31.2625  31.2832
    35.0861  35.1820  39.8307  39.8581  39.9938  40.0298  41.4372  41.4482
    43.8140  43.8310  45.1747  45.2007  46.2772  46.3014  47.4569  47.4622
    50.5274  50.5583  54.4019  54.4041  55.8322  55.8427  59.0332  59.0515
    61.6235  61.6561  62.5831  62.5982  62.6014  62.6176  62.9923  63.0174

          k = 1.0000 1.0000 0.0000 (  2450 PWs)   bands (ev):

    -1.7198  -1.6651   3.2451   3.2632   6.7938   6.8227  15.9768  16.0025
    16.9767  16.9976  18.4844  18.5114  18.8637  18.8806  24.7840  24.8040
    25.5931  25.6448  26.0510  26.0580  27.2818  27.3024  31.2625  31.2832
    35.0861  35.1820  39.8307  39.8581  39.9938  40.0298  41.4372  41.4482
    43.8140  43.8310  45.1747  45.2007  46.2772  46.3014  47.4569  47.4622
    50.5274  50.5583  54.4019  54.4041  55.8322  55.8427  59.0332  59.0515
    61.6235  61.6561  62.5831  62.5982  62.6014  62.6176  62.9923  63.0174

          k = 0.7500-0.7500-0.7500 (  2451 PWs)   bands (ev):

    -4.9865   2.2055   5.3067   5.3067   7.9647   9.5222   9.5222  12.8486
    13.2531  13.2531  15.0501  17.7799  20.5738  20.5738  23.7397  23.7397
    23.8742  25.9781  29.8266  29.8266  32.2797  32.2797  33.6293  35.1460
    35.6471  37.5439  37.5439  39.2030  39.2030  40.1052  40.1052  43.8624
    43.8624  44.0086  44.5248  44.9895  46.8437  46.8437  49.1308  49.4032
    49.4032  49.7466  50.1047  52.5107  52.5107  55.1373  55.1373  56.3345
    56.3642  56.3642  58.1725  59.5758  62.4290  62.4290  63.0068  63.0068

          k = 0.2500-0.2500-1.2500 (  2437 PWs)   bands (ev):

    -3.0939  -0.2897   2.6174   3.8793   7.5749  10.5086  11.7307  11.9556
    16.1365  16.5033  18.0751  18.5907  18.9237  22.7488  23.6430  24.4502
    25.2289  25.4496  25.8084  28.7450  29.5347  30.9439  31.3679  33.6081
    34.7909  35.0621  35.0719  36.8395  37.8077  39.9778  41.1609  41.7691
    42.7339  42.8567  44.3322  46.4060  48.7206  49.6713  50.0750  50.6824
    50.7194  51.4358  52.0638  53.9321  54.3867  55.8191  56.6004  57.2511
    58.4549  60.2314  60.7689  61.2218  61.6660  63.6065  64.4519  65.7459

          k =-0.2500 0.2500-1.7500 (  2451 PWs)   bands (ev):

    -4.9865   2.2055   5.3067   5.3067   7.9647   9.5222   9.5222  12.8486
    13.2531  13.2531  15.0501  17.7799  20.5738  20.5738  23.7397  23.7397
    23.8742  25.9781  29.8266  29.8266  32.2797  32.2797  33.6293  35.1460
    35.6471  37.5439  37.5439  39.2030  39.2030  40.1052  40.1052  43.8624
    43.8624  44.0086  44.5248  44.9895  46.8437  46.8437  49.1308  49.4032
    49.4032  49.7466  50.1047  52.5107  52.5107  55.1373  55.1373  56.3345
    56.3642  56.3642  58.1725  59.5758  62.4290  62.4290  63.0068  63.0068

          k =-0.7500 0.7500-2.2500 (  2437 PWs)   bands (ev):

    -3.0939  -0.2897   2.6174   3.8793   7.5749  10.5086  11.7307  11.9556
    16.1365  16.5033  18.0751  18.5907  18.9237  22.7488  23.6430  24.4502
    25.2289  25.4496  25.8084  28.7450  29.5347  30.9439  31.3679  33.6081
    34.7909  35.0621  35.0719  36.8395  37.8077  39.9778  41.1609  41.7691
    42.7339  42.8567  44.3322  46.4060  48.7206  49.6713  50.0750  50.6824
    50.7194  51.4358  52.0638  53.9321  54.3867  55.8191  56.6004  57.2511
    58.4549  60.2314  60.7689  61.2218  61.6660  63.6065  64.4519  65.7459

          k = 1.2500-0.2500-0.2500 (  2437 PWs)   bands (ev):

    -3.0939  -0.2897   2.6174   3.8793   7.5749  10.5086  11.7307  11.9556
    16.1365  16.5033  18.0751  18.5907  18.9237  22.7488  23.6430  24.4502
    25.2289  25.4496  25.8084  28.7450  29.5347  30.9439  31.3679  33.6081
    34.7909  35.0621  35.0719  36.8395  37.8077  39.9778  41.1609  41.7691
    42.7339  42.8567  44.3322  46.4060  48.7206  49.6713  50.0750  50.6824
    50.7194  51.4358  52.0638  53.9321  54.3867  55.8191  56.6004  57.2511
    58.4549  60.2314  60.7689  61.2218  61.6660  63.6065  64.4519  65.7459

          k = 0.7500 0.2500-0.7500 (  2437 PWs)   bands (ev):

    -3.0939  -0.2897   2.6174   3.8793   7.5749  10.5086  11.7307  11.9556
    16.1365  16.5033  18.0751  18.5907  18.9237  22.7488  23.6430  24.4502
    25.2289  25.4496  25.8084  28.7450  29.5347  30.9439  31.3679  33.6081
    34.7909  35.0621  35.0719  36.8395  37.8077  39.9778  41.1609  41.7691
    42.7339  42.8567  44.3322  46.4060  48.7206  49.6713  50.0750  50.6824
    50.7194  51.4358  52.0638  53.9321  54.3867  55.8191  56.6004  57.2511
    58.4549  60.2314  60.7689  61.2218  61.6660  63.6065  64.4519  65.7459

          k = 0.2500 0.7500-1.2500 (  2437 PWs)   bands (ev):

    -3.0939  -0.2897   2.6174   3.8793   7.5749  10.5086  11.7307  11.9556
    16.1365  16.5033  18.0751  18.5907  18.9237  22.7488  23.6430  24.4502
    25.2289  25.4496  25.8084  28.7450  29.5347  30.9439  31.3679  33.6081
    34.7909  35.0621  35.0719  36.8395  37.8077  39.9778  41.1609  41.7691
    42.7339  42.8567  44.3322  46.4060  48.7206  49.6713  50.0750  50.6824
    50.7194  51.4358  52.0638  53.9321  54.3867  55.8191  56.6004  57.2511
    58.4549  60.2314  60.7689  61.2218  61.6660  63.6065  64.4519  65.7459

          k =-0.2500 1.2500-1.7500 (  2437 PWs)   bands (ev):

    -3.0939  -0.2897   2.6174   3.8793   7.5749  10.5086  11.7307  11.9556
    16.1365  16.5033  18.0751  18.5907  18.9237  22.7488  23.6430  24.4502
    25.2289  25.4496  25.8084  28.7450  29.5347  30.9439  31.3679  33.6081
    34.7909  35.0621  35.0719  36.8395  37.8077  39.9778  41.1609  41.7691
    42.7339  42.8567  44.3322  46.4060  48.7206  49.6713  50.0750  50.6824
    50.7194  51.4358  52.0638  53.9321  54.3867  55.8191  56.6004  57.2511
    58.4549  60.2314  60.7689  61.2218  61.6660  63.6065  64.4519  65.7459

          k = 1.7500 0.2500 0.2500 (  2451 PWs)   bands (ev):

    -4.9865   2.2055   5.3067   5.3067   7.9647   9.5222   9.5222  12.8486
    13.2531  13.2531  15.0501  17.7799  20.5738  20.5738  23.7397  23.7397
    23.8742  25.9781  29.8266  29.8266  32.2797  32.2797  33.6293  35.1460
    35.6471  37.5439  37.5439  39.2030  39.2030  40.1052  40.1052  43.8624
    43.8624  44.0086  44.5248  44.9895  46.8437  46.8437  49.1308  49.4032
    49.4032  49.7466  50.1047  52.5107  52.5107  55.1373  55.1373  56.3345
    56.3642  56.3642  58.1725  59.5758  62.4290  62.4290  63.0068  63.0068

          k = 1.2500 0.7500-0.2500 (  2437 PWs)   bands (ev):

    -3.0939  -0.2897   2.6174   3.8793   7.5749  10.5086  11.7307  11.9556
    16.1365  16.5033  18.0751  18.5907  18.9237  22.7488  23.6430  24.4502
    25.2289  25.4496  25.8084  28.7450  29.5347  30.9439  31.3679  33.6081
    34.7909  35.0621  35.0719  36.8395  37.8077  39.9778  41.1609  41.7691
    42.7339  42.8567  44.3322  46.4060  48.7206  49.6713  50.0750  50.6824
    50.7194  51.4358  52.0638  53.9321  54.3867  55.8191  56.6004  57.2511
    58.4549  60.2314  60.7689  61.2218  61.6660  63.6065  64.4519  65.7459

          k = 0.7500 1.2500-0.7500 (  2451 PWs)   bands (ev):

    -4.9865   2.2055   5.3067   5.3067   7.9647   9.5222   9.5222  12.8486
    13.2531  13.2531  15.0501  17.7799  20.5738  20.5738  23.7397  23.7397
    23.8742  25.9781  29.8266  29.8266  32.2797  32.2797  33.6293  35.1460
    35.6471  37.5439  37.5439  39.2030  39.2030  40.1052  40.1052  43.8624
    43.8624  44.0086  44.5248  44.9895  46.8437  46.8437  49.1308  49.4032
    49.4032  49.7466  50.1047  52.5107  52.5107  55.1373  55.1373  56.3345
    56.3642  56.3642  58.1725  59.5758  62.4290  62.4290  63.0068  63.0068

          k = 0.2500 1.7500-1.2500 (  2437 PWs)   bands (ev):

    -3.0939  -0.2897   2.6174   3.8793   7.5749  10.5086  11.7307  11.9556
    16.1365  16.5033  18.0751  18.5907  18.9237  22.7488  23.6430  24.4502
    25.2289  25.4496  25.8084  28.7450  29.5347  30.9439  31.3679  33.6081
    34.7909  35.0621  35.0719  36.8395  37.8077  39.9778  41.1609  41.7691
    42.7339  42.8567  44.3322  46.4060  48.7206  49.6713  50.0750  50.6824
    50.7194  51.4358  52.0638  53.9321  54.3867  55.8191  56.6004  57.2511
    58.4549  60.2314  60.7689  61.2218  61.6660  63.6065  64.4519  65.7459

          k = 2.2500 0.7500 0.7500 (  2437 PWs)   bands (ev):

    -3.0939  -0.2897   2.6174   3.8793   7.5749  10.5086  11.7307  11.9556
    16.1365  16.5033  18.0751  18.5907  18.9237  22.7488  23.6430  24.4502
    25.2289  25.4496  25.8084  28.7450  29.5347  30.9439  31.3679  33.6081
    34.7909  35.0621  35.0719  36.8395  37.8077  39.9778  41.1609  41.7691
    42.7339  42.8567  44.3322  46.4060  48.7206  49.6713  50.0750  50.6824
    50.7194  51.4358  52.0638  53.9321  54.3867  55.8191  56.6004  57.2511
    58.4549  60.2314  60.7689  61.2218  61.6660  63.6065  64.4519  65.7459

          k = 1.7500 1.2500 0.2500 (  2437 PWs)   bands (ev):

    -3.0939  -0.2897   2.6174   3.8793   7.5749  10.5086  11.7307  11.9556
    16.1365  16.5033  18.0751  18.5907  18.9237  22.7488  23.6430  24.4502
    25.2289  25.4496  25.8084  28.7450  29.5347  30.9439  31.3679  33.6081
    34.7909  35.0621  35.0719  36.8395  37.8077  39.9778  41.1609  41.7691
    42.7339  42.8567  44.3322  46.4060  48.7206  49.6713  50.0750  50.6824
    50.7194  51.4358  52.0638  53.9321  54.3867  55.8191  56.6004  57.2511
    58.4549  60.2314  60.7689  61.2218  61.6660  63.6065  64.4519  65.7459

          k = 1.2500 1.7500-0.2500 (  2437 PWs)   bands (ev):

    -3.0939  -0.2897   2.6174   3.8793   7.5749  10.5086  11.7307  11.9556
    16.1365  16.5033  18.0751  18.5907  18.9237  22.7488  23.6430  24.4502
    25.2289  25.4496  25.8084  28.7450  29.5347  30.9439  31.3679  33.6081
    34.7909  35.0621  35.0719  36.8395  37.8077  39.9778  41.1609  41.7691
    42.7339  42.8567  44.3322  46.4060  48.7206  49.6713  50.0750  50.6824
    50.7194  51.4358  52.0638  53.9321  54.3867  55.8191  56.6004  57.2511
    58.4549  60.2314  60.7689  61.2218  61.6660  63.6065  64.4519  65.7459

          k = 0.7500 2.2500-0.7500 (  2437 PWs)   bands (ev):

    -3.0939  -0.2897   2.6174   3.8793   7.5749  10.5086  11.7307  11.9556
    16.1365  16.5033  18.0751  18.5907  18.9237  22.7488  23.6430  24.4502
    25.2289  25.4496  25.8084  28.7450  29.5347  30.9439  31.3679  33.6081
    34.7909  35.0621  35.0719  36.8395  37.8077  39.9778  41.1609  41.7691
    42.7339  42.8567  44.3322  46.4060  48.7206  49.6713  50.0750  50.6824
    50.7194  51.4358  52.0638  53.9321  54.3867  55.8191  56.6004  57.2511
    58.4549  60.2314  60.7689  61.2218  61.6660  63.6065  64.4519  65.7459

          k = 0.2500-1.2500-0.2500 (  2437 PWs)   bands (ev):

    -3.0939  -0.2897   2.6174   3.8793   7.5749  10.5086  11.7307  11.9556
    16.1365  16.5033  18.0751  18.5907  18.9237  22.7488  23.6430  24.4502
    25.2289  25.4496  25.8084  28.7450  29.5347  30.9439  31.3679  33.6081
    34.7909  35.0621  35.0719  36.8395  37.8077  39.9778  41.1609  41.7691
    42.7339  42.8567  44.3322  46.4060  48.7206  49.6713  50.0750  50.6824
    50.7194  51.4358  52.0638  53.9321  54.3867  55.8191  56.6004  57.2511
    58.4549  60.2314  60.7689  61.2218  61.6660  63.6065  64.4519  65.7459

          k =-0.2500-0.7500-0.7500 (  2437 PWs)   bands (ev):

    -3.0939  -0.2897   2.6174   3.8793   7.5749  10.5086  11.7307  11.9556
    16.1365  16.5033  18.0751  18.5907  18.9237  22.7488  23.6430  24.4502
    25.2289  25.4496  25.8084  28.7450  29.5347  30.9439  31.3679  33.6081
    34.7909  35.0621  35.0719  36.8395  37.8077  39.9778  41.1609  41.7691
    42.7339  42.8567  44.3322  46.4060  48.7206  49.6713  50.0750  50.6824
    50.7194  51.4358  52.0638  53.9321  54.3867  55.8191  56.6004  57.2511
    58.4549  60.2314  60.7689  61.2218  61.6660  63.6065  64.4519  65.7459

          k =-0.7500-0.2500-1.2500 (  2437 PWs)   bands (ev):

    -3.0939  -0.2897   2.6174   3.8793   7.5749  10.5086  11.7307  11.9556
    16.1365  16.5033  18.0751  18.5907  18.9237  22.7488  23.6430  24.4502
    25.2289  25.4496  25.8084  28.7450  29.5347  30.9439  31.3679  33.6081
    34.7909  35.0621  35.0719  36.8395  37.8077  39.9778  41.1609  41.7691
    42.7339  42.8567  44.3322  46.4060  48.7206  49.6713  50.0750  50.6824
    50.7194  51.4358  52.0638  53.9321  54.3867  55.8191  56.6004  57.2511
    58.4549  60.2314  60.7689  61.2218  61.6660  63.6065  64.4519  65.7459

          k =-1.2500 0.2500-1.7500 (  2437 PWs)   bands (ev):

    -3.0939  -0.2897   2.6174   3.8793   7.5749  10.5086  11.7307  11.9556
    16.1365  16.5033  18.0751  18.5907  18.9237  22.7488  23.6430  24.4502
    25.2289  25.4496  25.8084  28.7450  29.5347  30.9439  31.3679  33.6081
    34.7909  35.0621  35.0719  36.8395  37.8077  39.9778  41.1609  41.7691
    42.7339  42.8567  44.3322  46.4060  48.7206  49.6713  50.0750  50.6824
    50.7194  51.4358  52.0638  53.9321  54.3867  55.8191  56.6004  57.2511
    58.4549  60.2314  60.7689  61.2218  61.6660  63.6065  64.4519  65.7459

          k = 0.7500-0.7500 0.2500 (  2437 PWs)   bands (ev):

    -3.0939  -0.2897   2.6174   3.8793   7.5749  10.5086  11.7307  11.9556
    16.1365  16.5033  18.0751  18.5907  18.9237  22.7488  23.6430  24.4502
    25.2289  25.4496  25.8084  28.7450  29.5347  30.9439  31.3679  33.6081
    34.7909  35.0621  35.0719  36.8395  37.8077  39.9778  41.1609  41.7691
    42.7339  42.8567  44.3322  46.4060  48.7206  49.6713  50.0750  50.6824
    50.7194  51.4358  52.0638  53.9321  54.3867  55.8191  56.6004  57.2511
    58.4549  60.2314  60.7689  61.2218  61.6660  63.6065  64.4519  65.7459

          k = 0.2500-0.2500-0.2500 (  2451 PWs)   bands (ev):

    -4.9865   2.2055   5.3067   5.3067   7.9647   9.5222   9.5222  12.8486
    13.2531  13.2531  15.0501  17.7799  20.5738  20.5738  23.7397  23.7397
    23.8742  25.9781  29.8266  29.8266  32.2797  32.2797  33.6293  35.1460
    35.6471  37.5439  37.5439  39.2030  39.2030  40.1052  40.1052  43.8624
    43.8624  44.0086  44.5248  44.9895  46.8437  46.8437  49.1308  49.4032
    49.4032  49.7466  50.1047  52.5107  52.5107  55.1373  55.1373  56.3345
    56.3642  56.3642  58.1725  59.5758  62.4290  62.4290  63.0068  63.0068

          k =-0.2500 0.2500-0.7500 (  2437 PWs)   bands (ev):

    -3.0939  -0.2897   2.6174   3.8793   7.5749  10.5086  11.7307  11.9556
    16.1365  16.5033  18.0751  18.5907  18.9237  22.7488  23.6430  24.4502
    25.2289  25.4496  25.8084  28.7450  29.5347  30.9439  31.3679  33.6081
    34.7909  35.0621  35.0719  36.8395  37.8077  39.9778  41.1609  41.7691
    42.7339  42.8567  44.3322  46.4060  48.7206  49.6713  50.0750  50.6824
    50.7194  51.4358  52.0638  53.9321  54.3867  55.8191  56.6004  57.2511
    58.4549  60.2314  60.7689  61.2218  61.6660  63.6065  64.4519  65.7459

          k =-0.7500 0.7500-1.2500 (  2451 PWs)   bands (ev):

    -4.9865   2.2055   5.3067   5.3067   7.9647   9.5222   9.5222  12.8486
    13.2531  13.2531  15.0501  17.7799  20.5738  20.5738  23.7397  23.7397
    23.8742  25.9781  29.8266  29.8266  32.2797  32.2797  33.6293  35.1460
    35.6471  37.5439  37.5439  39.2030  39.2030  40.1052  40.1052  43.8624
    43.8624  44.0086  44.5248  44.9895  46.8437  46.8437  49.1308  49.4032
    49.4032  49.7466  50.1047  52.5107  52.5107  55.1373  55.1373  56.3345
    56.3642  56.3642  58.1725  59.5758  62.4290  62.4290  63.0068  63.0068

          k = 1.2500-0.2500 0.7500 (  2437 PWs)   bands (ev):

    -3.0939  -0.2897   2.6174   3.8793   7.5749  10.5086  11.7307  11.9556
    16.1365  16.5033  18.0751  18.5907  18.9237  22.7488  23.6430  24.4502
    25.2289  25.4496  25.8084  28.7450  29.5347  30.9439  31.3679  33.6081
    34.7909  35.0621  35.0719  36.8395  37.8077  39.9778  41.1609  41.7691
    42.7339  42.8567  44.3322  46.4060  48.7206  49.6713  50.0750  50.6824
    50.7194  51.4358  52.0638  53.9321  54.3867  55.8191  56.6004  57.2511
    58.4549  60.2314  60.7689  61.2218  61.6660  63.6065  64.4519  65.7459

          k = 0.7500 0.2500 0.2500 (  2437 PWs)   bands (ev):

    -3.0939  -0.2897   2.6174   3.8793   7.5749  10.5086  11.7307  11.9556
    16.1365  16.5033  18.0751  18.5907  18.9237  22.7488  23.6430  24.4502
    25.2289  25.4496  25.8084  28.7450  29.5347  30.9439  31.3679  33.6081
    34.7909  35.0621  35.0719  36.8395  37.8077  39.9778  41.1609  41.7691
    42.7339  42.8567  44.3322  46.4060  48.7206  49.6713  50.0750  50.6824
    50.7194  51.4358  52.0638  53.9321  54.3867  55.8191  56.6004  57.2511
    58.4549  60.2314  60.7689  61.2218  61.6660  63.6065  64.4519  65.7459

          k = 0.2500 0.7500-0.2500 (  2437 PWs)   bands (ev):

    -3.0939  -0.2897   2.6174   3.8793   7.5749  10.5086  11.7307  11.9556
    16.1365  16.5033  18.0751  18.5907  18.9237  22.7488  23.6430  24.4502
    25.2289  25.4496  25.8084  28.7450  29.5347  30.9439  31.3679  33.6081
    34.7909  35.0621  35.0719  36.8395  37.8077  39.9778  41.1609  41.7691
    42.7339  42.8567  44.3322  46.4060  48.7206  49.6713  50.0750  50.6824
    50.7194  51.4358  52.0638  53.9321  54.3867  55.8191  56.6004  57.2511
    58.4549  60.2314  60.7689  61.2218  61.6660  63.6065  64.4519  65.7459

          k =-0.2500 1.2500-0.7500 (  2437 PWs)   bands (ev):

    -3.0939  -0.2897   2.6174   3.8793   7.5749  10.5086  11.7307  11.9556
    16.1365  16.5033  18.0751  18.5907  18.9237  22.7488  23.6430  24.4502
    25.2289  25.4496  25.8084  28.7450  29.5347  30.9439  31.3679  33.6081
    34.7909  35.0621  35.0719  36.8395  37.8077  39.9778  41.1609  41.7691
    42.7339  42.8567  44.3322  46.4060  48.7206  49.6713  50.0750  50.6824
    50.7194  51.4358  52.0638  53.9321  54.3867  55.8191  56.6004  57.2511
    58.4549  60.2314  60.7689  61.2218  61.6660  63.6065  64.4519  65.7459

          k = 1.7500 0.2500 1.2500 (  2437 PWs)   bands (ev):

    -3.0939  -0.2897   2.6174   3.8793   7.5749  10.5086  11.7307  11.9556
    16.1365  16.5033  18.0751  18.5907  18.9237  22.7488  23.6430  24.4502
    25.2289  25.4496  25.8084  28.7450  29.5347  30.9439  31.3679  33.6081
    34.7909  35.0621  35.0719  36.8395  37.8077  39.9778  41.1609  41.7691
    42.7339  42.8567  44.3322  46.4060  48.7206  49.6713  50.0750  50.6824
    50.7194  51.4358  52.0638  53.9321  54.3867  55.8191  56.6004  57.2511
    58.4549  60.2314  60.7689  61.2218  61.6660  63.6065  64.4519  65.7459

          k = 1.2500 0.7500 0.7500 (  2451 PWs)   bands (ev):

    -4.9865   2.2055   5.3067   5.3067   7.9647   9.5222   9.5222  12.8486
    13.2531  13.2531  15.0501  17.7799  20.5738  20.5738  23.7397  23.7397
    23.8742  25.9781  29.8266  29.8266  32.2797  32.2797  33.6293  35.1460
    35.6471  37.5439  37.5439  39.2030  39.2030  40.1052  40.1052  43.8624
    43.8624  44.0086  44.5248  44.9895  46.8437  46.8437  49.1308  49.4032
    49.4032  49.7466  50.1047  52.5107  52.5107  55.1373  55.1373  56.3345
    56.3642  56.3642  58.1725  59.5758  62.4290  62.4290  63.0068  63.0068

          k = 0.7500 1.2500 0.2500 (  2437 PWs)   bands (ev):

    -3.0939  -0.2897   2.6174   3.8793   7.5749  10.5086  11.7307  11.9556
    16.1365  16.5033  18.0751  18.5907  18.9237  22.7488  23.6430  24.4502
    25.2289  25.4496  25.8084  28.7450  29.5347  30.9439  31.3679  33.6081
    34.7909  35.0621  35.0719  36.8395  37.8077  39.9778  41.1609  41.7691
    42.7339  42.8567  44.3322  46.4060  48.7206  49.6713  50.0750  50.6824
    50.7194  51.4358  52.0638  53.9321  54.3867  55.8191  56.6004  57.2511
    58.4549  60.2314  60.7689  61.2218  61.6660  63.6065  64.4519  65.7459

          k = 0.2500 1.7500-0.2500 (  2451 PWs)   bands (ev):

    -4.9865   2.2055   5.3067   5.3067   7.9647   9.5222   9.5222  12.8486
    13.2531  13.2531  15.0501  17.7799  20.5738  20.5738  23.7397  23.7397
    23.8742  25.9781  29.8266  29.8266  32.2797  32.2797  33.6293  35.1460
    35.6471  37.5439  37.5439  39.2030  39.2030  40.1052  40.1052  43.8624
    43.8624  44.0086  44.5248  44.9895  46.8437  46.8437  49.1308  49.4032
    49.4032  49.7466  50.1047  52.5107  52.5107  55.1373  55.1373  56.3345
    56.3642  56.3642  58.1725  59.5758  62.4290  62.4290  63.0068  63.0068

          k =-0.2500-1.7500 0.2500 (  2451 PWs)   bands (ev):

    -4.9865   2.2055   5.3067   5.3067   7.9647   9.5222   9.5222  12.8486
    13.2531  13.2531  15.0501  17.7799  20.5738  20.5738  23.7397  23.7397
    23.8742  25.9781  29.8266  29.8266  32.2797  32.2797  33.6293  35.1460
    35.6471  37.5439  37.5439  39.2030  39.2030  40.1052  40.1052  43.8624
    43.8624  44.0086  44.5248  44.9895  46.8437  46.8437  49.1308  49.4032
    49.4032  49.7466  50.1047  52.5107  52.5107  55.1373  55.1373  56.3345
    56.3642  56.3642  58.1725  59.5758  62.4290  62.4290  63.0068  63.0068

          k =-0.7500-1.2500-0.2500 (  2437 PWs)   bands (ev):

    -3.0939  -0.2897   2.6174   3.8793   7.5749  10.5086  11.7307  11.9556
    16.1365  16.5033  18.0751  18.5907  18.9237  22.7488  23.6430  24.4502
    25.2289  25.4496  25.8084  28.7450  29.5347  30.9439  31.3679  33.6081
    34.7909  35.0621  35.0719  36.8395  37.8077  39.9778  41.1609  41.7691
    42.7339  42.8567  44.3322  46.4060  48.7206  49.6713  50.0750  50.6824
    50.7194  51.4358  52.0638  53.9321  54.3867  55.8191  56.6004  57.2511
    58.4549  60.2314  60.7689  61.2218  61.6660  63.6065  64.4519  65.7459

          k =-1.2500-0.7500-0.7500 (  2451 PWs)   bands (ev):

    -4.9865   2.2055   5.3067   5.3067   7.9647   9.5222   9.5222  12.8486
    13.2531  13.2531  15.0501  17.7799  20.5738  20.5738  23.7397  23.7397
    23.8742  25.9781  29.8266  29.8266  32.2797  32.2797  33.6293  35.1460
    35.6471  37.5439  37.5439  39.2030  39.2030  40.1052  40.1052  43.8624
    43.8624  44.0086  44.5248  44.9895  46.8437  46.8437  49.1308  49.4032
    49.4032  49.7466  50.1047  52.5107  52.5107  55.1373  55.1373  56.3345
    56.3642  56.3642  58.1725  59.5758  62.4290  62.4290  63.0068  63.0068

          k =-1.7500-0.2500-1.2500 (  2437 PWs)   bands (ev):

    -3.0939  -0.2897   2.6174   3.8793   7.5749  10.5086  11.7307  11.9556
    16.1365  16.5033  18.0751  18.5907  18.9237  22.7488  23.6430  24.4502
    25.2289  25.4496  25.8084  28.7450  29.5347  30.9439  31.3679  33.6081
    34.7909  35.0621  35.0719  36.8395  37.8077  39.9778  41.1609  41.7691
    42.7339  42.8567  44.3322  46.4060  48.7206  49.6713  50.0750  50.6824
    50.7194  51.4358  52.0638  53.9321  54.3867  55.8191  56.6004  57.2511
    58.4549  60.2314  60.7689  61.2218  61.6660  63.6065  64.4519  65.7459

          k = 0.2500-1.2500 0.7500 (  2437 PWs)   bands (ev):

    -3.0939  -0.2897   2.6174   3.8793   7.5749  10.5086  11.7307  11.9556
    16.1365  16.5033  18.0751  18.5907  18.9237  22.7488  23.6430  24.4502
    25.2289  25.4496  25.8084  28.7450  29.5347  30.9439  31.3679  33.6081
    34.7909  35.0621  35.0719  36.8395  37.8077  39.9778  41.1609  41.7691
    42.7339  42.8567  44.3322  46.4060  48.7206  49.6713  50.0750  50.6824
    50.7194  51.4358  52.0638  53.9321  54.3867  55.8191  56.6004  57.2511
    58.4549  60.2314  60.7689  61.2218  61.6660  63.6065  64.4519  65.7459

          k =-0.2500-0.7500 0.2500 (  2437 PWs)   bands (ev):

    -3.0939  -0.2897   2.6174   3.8793   7.5749  10.5086  11.7307  11.9556
    16.1365  16.5033  18.0751  18.5907  18.9237  22.7488  23.6430  24.4502
    25.2289  25.4496  25.8084  28.7450  29.5347  30.9439  31.3679  33.6081
    34.7909  35.0621  35.0719  36.8395  37.8077  39.9778  41.1609  41.7691
    42.7339  42.8567  44.3322  46.4060  48.7206  49.6713  50.0750  50.6824
    50.7194  51.4358  52.0638  53.9321  54.3867  55.8191  56.6004  57.2511
    58.4549  60.2314  60.7689  61.2218  61.6660  63.6065  64.4519  65.7459

          k =-0.7500-0.2500-0.2500 (  2437 PWs)   bands (ev):

    -3.0939  -0.2897   2.6174   3.8793   7.5749  10.5086  11.7307  11.9556
    16.1365  16.5033  18.0751  18.5907  18.9237  22.7488  23.6430  24.4502
    25.2289  25.4496  25.8084  28.7450  29.5347  30.9439  31.3679  33.6081
    34.7909  35.0621  35.0719  36.8395  37.8077  39.9778  41.1609  41.7691
    42.7339  42.8567  44.3322  46.4060  48.7206  49.6713  50.0750  50.6824
    50.7194  51.4358  52.0638  53.9321  54.3867  55.8191  56.6004  57.2511
    58.4549  60.2314  60.7689  61.2218  61.6660  63.6065  64.4519  65.7459

          k =-1.2500 0.2500-0.7500 (  2437 PWs)   bands (ev):

    -3.0939  -0.2897   2.6174   3.8793   7.5749  10.5086  11.7307  11.9556
    16.1365  16.5033  18.0751  18.5907  18.9237  22.7488  23.6430  24.4502
    25.2289  25.4496  25.8084  28.7450  29.5347  30.9439  31.3679  33.6081
    34.7909  35.0621  35.0719  36.8395  37.8077  39.9778  41.1609  41.7691
    42.7339  42.8567  44.3322  46.4060  48.7206  49.6713  50.0750  50.6824
    50.7194  51.4358  52.0638  53.9321  54.3867  55.8191  56.6004  57.2511
    58.4549  60.2314  60.7689  61.2218  61.6660  63.6065  64.4519  65.7459

          k = 0.7500-0.7500 1.2500 (  2451 PWs)   bands (ev):

    -4.9865   2.2055   5.3067   5.3067   7.9647   9.5222   9.5222  12.8486
    13.2531  13.2531  15.0501  17.7799  20.5738  20.5738  23.7397  23.7397
    23.8742  25.9781  29.8266  29.8266  32.2797  32.2797  33.6293  35.1460
    35.6471  37.5439  37.5439  39.2030  39.2030  40.1052  40.1052  43.8624
    43.8624  44.0086  44.5248  44.9895  46.8437  46.8437  49.1308  49.4032
    49.4032  49.7466  50.1047  52.5107  52.5107  55.1373  55.1373  56.3345
    56.3642  56.3642  58.1725  59.5758  62.4290  62.4290  63.0068  63.0068

          k = 0.2500-0.2500 0.7500 (  2437 PWs)   bands (ev):

    -3.0939  -0.2897   2.6174   3.8793   7.5749  10.5086  11.7307  11.9556
    16.1365  16.5033  18.0751  18.5907  18.9237  22.7488  23.6430  24.4502
    25.2289  25.4496  25.8084  28.7450  29.5347  30.9439  31.3679  33.6081
    34.7909  35.0621  35.0719  36.8395  37.8077  39.9778  41.1609  41.7691
    42.7339  42.8567  44.3322  46.4060  48.7206  49.6713  50.0750  50.6824
    50.7194  51.4358  52.0638  53.9321  54.3867  55.8191  56.6004  57.2511
    58.4549  60.2314  60.7689  61.2218  61.6660  63.6065  64.4519  65.7459

          k =-0.2500 0.2500 0.2500 (  2451 PWs)   bands (ev):

    -4.9865   2.2055   5.3067   5.3067   7.9647   9.5222   9.5222  12.8486
    13.2531  13.2531  15.0501  17.7799  20.5738  20.5738  23.7397  23.7397
    23.8742  25.9781  29.8266  29.8266  32.2797  32.2797  33.6293  35.1460
    35.6471  37.5439  37.5439  39.2030  39.2030  40.1052  40.1052  43.8624
    43.8624  44.0086  44.5248  44.9895  46.8437  46.8437  49.1308  49.4032
    49.4032  49.7466  50.1047  52.5107  52.5107  55.1373  55.1373  56.3345
    56.3642  56.3642  58.1725  59.5758  62.4290  62.4290  63.0068  63.0068

          k =-0.7500 0.7500-0.2500 (  2437 PWs)   bands (ev):

    -3.0939  -0.2897   2.6174   3.8793   7.5749  10.5086  11.7307  11.9556
    16.1365  16.5033  18.0751  18.5907  18.9237  22.7488  23.6430  24.4502
    25.2289  25.4496  25.8084  28.7450  29.5347  30.9439  31.3679  33.6081
    34.7909  35.0621  35.0719  36.8395  37.8077  39.9778  41.1609  41.7691
    42.7339  42.8567  44.3322  46.4060  48.7206  49.6713  50.0750  50.6824
    50.7194  51.4358  52.0638  53.9321  54.3867  55.8191  56.6004  57.2511
    58.4549  60.2314  60.7689  61.2218  61.6660  63.6065  64.4519  65.7459

          k = 1.2500-0.2500 1.7500 (  2437 PWs)   bands (ev):

    -3.0939  -0.2897   2.6174   3.8793   7.5749  10.5086  11.7307  11.9556
    16.1365  16.5033  18.0751  18.5907  18.9237  22.7488  23.6430  24.4502
    25.2289  25.4496  25.8084  28.7450  29.5347  30.9439  31.3679  33.6081
    34.7909  35.0621  35.0719  36.8395  37.8077  39.9778  41.1609  41.7691
    42.7339  42.8567  44.3322  46.4060  48.7206  49.6713  50.0750  50.6824
    50.7194  51.4358  52.0638  53.9321  54.3867  55.8191  56.6004  57.2511
    58.4549  60.2314  60.7689  61.2218  61.6660  63.6065  64.4519  65.7459

          k = 0.7500 0.2500 1.2500 (  2437 PWs)   bands (ev):

    -3.0939  -0.2897   2.6174   3.8793   7.5749  10.5086  11.7307  11.9556
    16.1365  16.5033  18.0751  18.5907  18.9237  22.7488  23.6430  24.4502
    25.2289  25.4496  25.8084  28.7450  29.5347  30.9439  31.3679  33.6081
    34.7909  35.0621  35.0719  36.8395  37.8077  39.9778  41.1609  41.7691
    42.7339  42.8567  44.3322  46.4060  48.7206  49.6713  50.0750  50.6824
    50.7194  51.4358  52.0638  53.9321  54.3867  55.8191  56.6004  57.2511
    58.4549  60.2314  60.7689  61.2218  61.6660  63.6065  64.4519  65.7459

          k = 0.2500 0.7500 0.7500 (  2437 PWs)   bands (ev):

    -3.0939  -0.2897   2.6174   3.8793   7.5749  10.5086  11.7307  11.9556
    16.1365  16.5033  18.0751  18.5907  18.9237  22.7488  23.6430  24.4502
    25.2289  25.4496  25.8084  28.7450  29.5347  30.9439  31.3679  33.6081
    34.7909  35.0621  35.0719  36.8395  37.8077  39.9778  41.1609  41.7691
    42.7339  42.8567  44.3322  46.4060  48.7206  49.6713  50.0750  50.6824
    50.7194  51.4358  52.0638  53.9321  54.3867  55.8191  56.6004  57.2511
    58.4549  60.2314  60.7689  61.2218  61.6660  63.6065  64.4519  65.7459

          k =-0.2500 1.2500 0.2500 (  2437 PWs)   bands (ev):

    -3.0939  -0.2897   2.6174   3.8793   7.5749  10.5086  11.7307  11.9556
    16.1365  16.5033  18.0751  18.5907  18.9237  22.7488  23.6430  24.4502
    25.2289  25.4496  25.8084  28.7450  29.5347  30.9439  31.3679  33.6081
    34.7909  35.0621  35.0719  36.8395  37.8077  39.9778  41.1609  41.7691
    42.7339  42.8567  44.3322  46.4060  48.7206  49.6713  50.0750  50.6824
    50.7194  51.4358  52.0638  53.9321  54.3867  55.8191  56.6004  57.2511
    58.4549  60.2314  60.7689  61.2218  61.6660  63.6065  64.4519  65.7459

          k =-0.7500-2.2500 0.7500 (  2437 PWs)   bands (ev):

    -3.0939  -0.2897   2.6174   3.8793   7.5749  10.5086  11.7307  11.9556
    16.1365  16.5033  18.0751  18.5907  18.9237  22.7488  23.6430  24.4502
    25.2289  25.4496  25.8084  28.7450  29.5347  30.9439  31.3679  33.6081
    34.7909  35.0621  35.0719  36.8395  37.8077  39.9778  41.1609  41.7691
    42.7339  42.8567  44.3322  46.4060  48.7206  49.6713  50.0750  50.6824
    50.7194  51.4358  52.0638  53.9321  54.3867  55.8191  56.6004  57.2511
    58.4549  60.2314  60.7689  61.2218  61.6660  63.6065  64.4519  65.7459

          k =-1.2500-1.7500 0.2500 (  2437 PWs)   bands (ev):

    -3.0939  -0.2897   2.6174   3.8793   7.5749  10.5086  11.7307  11.9556
    16.1365  16.5033  18.0751  18.5907  18.9237  22.7488  23.6430  24.4502
    25.2289  25.4496  25.8084  28.7450  29.5347  30.9439  31.3679  33.6081
    34.7909  35.0621  35.0719  36.8395  37.8077  39.9778  41.1609  41.7691
    42.7339  42.8567  44.3322  46.4060  48.7206  49.6713  50.0750  50.6824
    50.7194  51.4358  52.0638  53.9321  54.3867  55.8191  56.6004  57.2511
    58.4549  60.2314  60.7689  61.2218  61.6660  63.6065  64.4519  65.7459

          k =-1.7500-1.2500-0.2500 (  2437 PWs)   bands (ev):

    -3.0939  -0.2897   2.6174   3.8793   7.5749  10.5086  11.7307  11.9556
    16.1365  16.5033  18.0751  18.5907  18.9237  22.7488  23.6430  24.4502
    25.2289  25.4496  25.8084  28.7450  29.5347  30.9439  31.3679  33.6081
    34.7909  35.0621  35.0719  36.8395  37.8077  39.9778  41.1609  41.7691
    42.7339  42.8567  44.3322  46.4060  48.7206  49.6713  50.0750  50.6824
    50.7194  51.4358  52.0638  53.9321  54.3867  55.8191  56.6004  57.2511
    58.4549  60.2314  60.7689  61.2218  61.6660  63.6065  64.4519  65.7459

          k =-2.2500-0.7500-0.7500 (  2437 PWs)   bands (ev):

    -3.0939  -0.2897   2.6174   3.8793   7.5749  10.5086  11.7307  11.9556
    16.1365  16.5033  18.0751  18.5907  18.9237  22.7488  23.6430  24.4502
    25.2289  25.4496  25.8084  28.7450  29.5347  30.9439  31.3679  33.6081
    34.7909  35.0621  35.0719  36.8395  37.8077  39.9778  41.1609  41.7691
    42.7339  42.8567  44.3322  46.4060  48.7206  49.6713  50.0750  50.6824
    50.7194  51.4358  52.0638  53.9321  54.3867  55.8191  56.6004  57.2511
    58.4549  60.2314  60.7689  61.2218  61.6660  63.6065  64.4519  65.7459

          k =-0.2500-1.7500 1.2500 (  2437 PWs)   bands (ev):

    -3.0939  -0.2897   2.6174   3.8793   7.5749  10.5086  11.7307  11.9556
    16.1365  16.5033  18.0751  18.5907  18.9237  22.7488  23.6430  24.4502
    25.2289  25.4496  25.8084  28.7450  29.5347  30.9439  31.3679  33.6081
    34.7909  35.0621  35.0719  36.8395  37.8077  39.9778  41.1609  41.7691
    42.7339  42.8567  44.3322  46.4060  48.7206  49.6713  50.0750  50.6824
    50.7194  51.4358  52.0638  53.9321  54.3867  55.8191  56.6004  57.2511
    58.4549  60.2314  60.7689  61.2218  61.6660  63.6065  64.4519  65.7459

          k =-0.7500-1.2500 0.7500 (  2451 PWs)   bands (ev):

    -4.9865   2.2055   5.3067   5.3067   7.9647   9.5222   9.5222  12.8486
    13.2531  13.2531  15.0501  17.7799  20.5738  20.5738  23.7397  23.7397
    23.8742  25.9781  29.8266  29.8266  32.2797  32.2797  33.6293  35.1460
    35.6471  37.5439  37.5439  39.2030  39.2030  40.1052  40.1052  43.8624
    43.8624  44.0086  44.5248  44.9895  46.8437  46.8437  49.1308  49.4032
    49.4032  49.7466  50.1047  52.5107  52.5107  55.1373  55.1373  56.3345
    56.3642  56.3642  58.1725  59.5758  62.4290  62.4290  63.0068  63.0068

          k =-1.2500-0.7500 0.2500 (  2437 PWs)   bands (ev):

    -3.0939  -0.2897   2.6174   3.8793   7.5749  10.5086  11.7307  11.9556
    16.1365  16.5033  18.0751  18.5907  18.9237  22.7488  23.6430  24.4502
    25.2289  25.4496  25.8084  28.7450  29.5347  30.9439  31.3679  33.6081
    34.7909  35.0621  35.0719  36.8395  37.8077  39.9778  41.1609  41.7691
    42.7339  42.8567  44.3322  46.4060  48.7206  49.6713  50.0750  50.6824
    50.7194  51.4358  52.0638  53.9321  54.3867  55.8191  56.6004  57.2511
    58.4549  60.2314  60.7689  61.2218  61.6660  63.6065  64.4519  65.7459

          k =-1.7500-0.2500-0.2500 (  2451 PWs)   bands (ev):

    -4.9865   2.2055   5.3067   5.3067   7.9647   9.5222   9.5222  12.8486
    13.2531  13.2531  15.0501  17.7799  20.5738  20.5738  23.7397  23.7397
    23.8742  25.9781  29.8266  29.8266  32.2797  32.2797  33.6293  35.1460
    35.6471  37.5439  37.5439  39.2030  39.2030  40.1052  40.1052  43.8624
    43.8624  44.0086  44.5248  44.9895  46.8437  46.8437  49.1308  49.4032
    49.4032  49.7466  50.1047  52.5107  52.5107  55.1373  55.1373  56.3345
    56.3642  56.3642  58.1725  59.5758  62.4290  62.4290  63.0068  63.0068

          k = 0.2500-1.2500 1.7500 (  2437 PWs)   bands (ev):

    -3.0939  -0.2897   2.6174   3.8793   7.5749  10.5086  11.7307  11.9556
    16.1365  16.5033  18.0751  18.5907  18.9237  22.7488  23.6430  24.4502
    25.2289  25.4496  25.8084  28.7450  29.5347  30.9439  31.3679  33.6081
    34.7909  35.0621  35.0719  36.8395  37.8077  39.9778  41.1609  41.7691
    42.7339  42.8567  44.3322  46.4060  48.7206  49.6713  50.0750  50.6824
    50.7194  51.4358  52.0638  53.9321  54.3867  55.8191  56.6004  57.2511
    58.4549  60.2314  60.7689  61.2218  61.6660  63.6065  64.4519  65.7459

          k =-0.2500-0.7500 1.2500 (  2437 PWs)   bands (ev):

    -3.0939  -0.2897   2.6174   3.8793   7.5749  10.5086  11.7307  11.9556
    16.1365  16.5033  18.0751  18.5907  18.9237  22.7488  23.6430  24.4502
    25.2289  25.4496  25.8084  28.7450  29.5347  30.9439  31.3679  33.6081
    34.7909  35.0621  35.0719  36.8395  37.8077  39.9778  41.1609  41.7691
    42.7339  42.8567  44.3322  46.4060  48.7206  49.6713  50.0750  50.6824
    50.7194  51.4358  52.0638  53.9321  54.3867  55.8191  56.6004  57.2511
    58.4549  60.2314  60.7689  61.2218  61.6660  63.6065  64.4519  65.7459

          k =-0.7500-0.2500 0.7500 (  2437 PWs)   bands (ev):

    -3.0939  -0.2897   2.6174   3.8793   7.5749  10.5086  11.7307  11.9556
    16.1365  16.5033  18.0751  18.5907  18.9237  22.7488  23.6430  24.4502
    25.2289  25.4496  25.8084  28.7450  29.5347  30.9439  31.3679  33.6081
    34.7909  35.0621  35.0719  36.8395  37.8077  39.9778  41.1609  41.7691
    42.7339  42.8567  44.3322  46.4060  48.7206  49.6713  50.0750  50.6824
    50.7194  51.4358  52.0638  53.9321  54.3867  55.8191  56.6004  57.2511
    58.4549  60.2314  60.7689  61.2218  61.6660  63.6065  64.4519  65.7459

          k =-1.2500 0.2500 0.2500 (  2437 PWs)   bands (ev):

    -3.0939  -0.2897   2.6174   3.8793   7.5749  10.5086  11.7307  11.9556
    16.1365  16.5033  18.0751  18.5907  18.9237  22.7488  23.6430  24.4502
    25.2289  25.4496  25.8084  28.7450  29.5347  30.9439  31.3679  33.6081
    34.7909  35.0621  35.0719  36.8395  37.8077  39.9778  41.1609  41.7691
    42.7339  42.8567  44.3322  46.4060  48.7206  49.6713  50.0750  50.6824
    50.7194  51.4358  52.0638  53.9321  54.3867  55.8191  56.6004  57.2511
    58.4549  60.2314  60.7689  61.2218  61.6660  63.6065  64.4519  65.7459

          k = 0.7500-0.7500 2.2500 (  2437 PWs)   bands (ev):

    -3.0939  -0.2897   2.6174   3.8793   7.5749  10.5086  11.7307  11.9556
    16.1365  16.5033  18.0751  18.5907  18.9237  22.7488  23.6430  24.4502
    25.2289  25.4496  25.8084  28.7450  29.5347  30.9439  31.3679  33.6081
    34.7909  35.0621  35.0719  36.8395  37.8077  39.9778  41.1609  41.7691
    42.7339  42.8567  44.3322  46.4060  48.7206  49.6713  50.0750  50.6824
    50.7194  51.4358  52.0638  53.9321  54.3867  55.8191  56.6004  57.2511
    58.4549  60.2314  60.7689  61.2218  61.6660  63.6065  64.4519  65.7459

          k = 0.2500-0.2500 1.7500 (  2451 PWs)   bands (ev):

    -4.9865   2.2055   5.3067   5.3067   7.9647   9.5222   9.5222  12.8486
    13.2531  13.2531  15.0501  17.7799  20.5738  20.5738  23.7397  23.7397
    23.8742  25.9781  29.8266  29.8266  32.2797  32.2797  33.6293  35.1460
    35.6471  37.5439  37.5439  39.2030  39.2030  40.1052  40.1052  43.8624
    43.8624  44.0086  44.5248  44.9895  46.8437  46.8437  49.1308  49.4032
    49.4032  49.7466  50.1047  52.5107  52.5107  55.1373  55.1373  56.3345
    56.3642  56.3642  58.1725  59.5758  62.4290  62.4290  63.0068  63.0068

          k =-0.2500 0.2500 1.2500 (  2437 PWs)   bands (ev):

    -3.0939  -0.2897   2.6174   3.8793   7.5749  10.5086  11.7307  11.9556
    16.1365  16.5033  18.0751  18.5907  18.9237  22.7488  23.6430  24.4502
    25.2289  25.4496  25.8084  28.7450  29.5347  30.9439  31.3679  33.6081
    34.7909  35.0621  35.0719  36.8395  37.8077  39.9778  41.1609  41.7691
    42.7339  42.8567  44.3322  46.4060  48.7206  49.6713  50.0750  50.6824
    50.7194  51.4358  52.0638  53.9321  54.3867  55.8191  56.6004  57.2511
    58.4549  60.2314  60.7689  61.2218  61.6660  63.6065  64.4519  65.7459

          k =-0.7500 0.7500 0.7500 (  2451 PWs)   bands (ev):

    -4.9865   2.2055   5.3067   5.3067   7.9647   9.5222   9.5222  12.8486
    13.2531  13.2531  15.0501  17.7799  20.5738  20.5738  23.7397  23.7397
    23.8742  25.9781  29.8266  29.8266  32.2797  32.2797  33.6293  35.1460
    35.6471  37.5439  37.5439  39.2030  39.2030  40.1052  40.1052  43.8624
    43.8624  44.0086  44.5248  44.9895  46.8437  46.8437  49.1308  49.4032
    49.4032  49.7466  50.1047  52.5107  52.5107  55.1373  55.1373  56.3345
    56.3642  56.3642  58.1725  59.5758  62.4290  62.4290  63.0068  63.0068

     highest occupied, lowest unoccupied level (ev):     6.1102    6.7938

!    total energy              =     -22.83625016 Ry
     Harris-Foulkes estimate   =     -22.83625016 Ry
     estimated scf accuracy    <          1.2E-10 Ry

     The total energy is the sum of the following terms:

     one-electron contribution =       4.94949546 Ry
     hartree contribution      =       1.15280371 Ry
     xc contribution           =     -12.25226881 Ry
     ewald contribution        =     -16.68628051 Ry

     convergence has been achieved in   6 iterations

     Forces acting on atoms (Ry/au):

     atom    1 type  1   force =     0.00245080   -0.00245079   -0.00245079
     atom    2 type  1   force =    -0.00245080    0.00245079    0.00245079

     Total force =     0.006003     Total SCF correction =     0.000002


     entering subroutine stress ...

          total   stress  (Ry/bohr**3)                   (kbar)     P=    5.70
   0.00003877   0.00037182   0.00037182          5.70     54.70     54.70
   0.00037182   0.00003877  -0.00037182         54.70      5.70    -54.70
   0.00037182  -0.00037182   0.00003877         54.70    -54.70      5.70


     Writing output data file silicon.save
  
  
 &&&&&&&&&&&&&&&&&&&&&&&&&&&&&&&&&&&&&&&&&&&&&&&&&&&&&&&&&&&&&&&&&&
 --- Entering QEdark v1.1.0
 &&&&&&&&&&&&&&&&&&&&&&&&&&&&&&&&&&&&&&&&&&&&&&&&&&&&&&&&&&&&&&&&&&
  
  
  
  Spin-polarized calculation == FALSE
  
  
 Reading DM data from dm.in               
            -------             
  calculation_mode set to multimass
  Calculating momentum-integrated, energy-dependent 
  DM-electron scattering rates for multiple DM masses.
            -------             
   npwx      ==        2451
   nbnd      ==          56
   nksf      ==          77
   numval    ==           4
   numvaltot ==           4
   numcond   ==          52
   numcondtot==          52
   cell vol  ==    275.61535182748662      bohr^(3)
   1BZ vol   ==   0.89998692669941838      bohr^(-3)
  
 Performing scissor correction to the band energies
 Band gap has been set to    1.1100000000000001      eV
  
 Creating bins for C integral ...
 bintype=           1
 Energy bin size=   1.3605692530000002      eV
  
  
 Iterating... @ ik2=           1
 Iterating... @ ik2=          49
 Iterating... @ ik2=          17
 Iterating... @ ik2=          64
 Iterating... @ ik2=          41
 Iterating... @ ik2=          57
 Iterating... @ ik2=          33
 Iterating... @ ik2=          71
 Iterating... @ ik2=           9
 Iterating... @ ik2=          25
 Iterating... @ ik2=           2
 Iterating... @ ik2=          50
 Iterating... @ ik2=          18
 Iterating... @ ik2=          42
 Iterating... @ ik2=          34
 Iterating... @ ik2=          26
 Iterating... @ ik2=          72
 Iterating... @ ik2=          58
 Iterating... @ ik2=          65
 Iterating... @ ik2=          10
 Iterating... @ ik2=           3
 Iterating... @ ik2=          51
 Iterating... @ ik2=          19
 Iterating... @ ik2=          35
 Iterating... @ ik2=          43
 Iterating... @ ik2=          66
 Iterating... @ ik2=          27
 Iterating... @ ik2=          59
 Iterating... @ ik2=          73
 Iterating... @ ik2=          11
 Iterating... @ ik2=          20
 Iterating... @ ik2=           4
 Iterating... @ ik2=          52
 Iterating... @ ik2=          60
 Iterating... @ ik2=          67
 Iterating... @ ik2=          28
 Iterating... @ ik2=          74
 Iterating... @ ik2=          44
 Iterating... @ ik2=          36
 Iterating... @ ik2=          12
 Iterating... @ ik2=          21
 Iterating... @ ik2=           5
 Iterating... @ ik2=          53
 Iterating... @ ik2=          61
 Iterating... @ ik2=          75
 Iterating... @ ik2=          29
 Iterating... @ ik2=          68
 Iterating... @ ik2=          45
 Iterating... @ ik2=          37
 Iterating... @ ik2=          13
 Iterating... @ ik2=          22
 Iterating... @ ik2=           6
 Iterating... @ ik2=          54
 Iterating... @ ik2=          62
 Iterating... @ ik2=          30
 Iterating... @ ik2=          69
 Iterating... @ ik2=          76
 Iterating... @ ik2=          46
 Iterating... @ ik2=          38
 Iterating... @ ik2=          14
 Iterating... @ ik2=          23
 Iterating... @ ik2=           7
 Iterating... @ ik2=          55
 Iterating... @ ik2=          63
 Iterating... @ ik2=          31
 Iterating... @ ik2=          77
 Iterating... @ ik2=          70
 Iterating... @ ik2=          39
 Iterating... @ ik2=          47
 Iterating... @ ik2=          15
 Iterating... @ ik2=          24
 Iterating... @ ik2=          56
 Iterating... @ ik2=           8
 Iterating... @ ik2=          32
 Iterating... @ ik2=          40
 Iterating... @ ik2=          48
 Iterating... @ ik2=          16
  
  Calculation finished 
  
 Writing output to C.01.dat            
 Writing output to C.02.dat            
 Writing output to C.03.dat            
 Writing output to C.04.dat            
 Writing output to C.05.dat            
 Writing output to C.06.dat            
 Writing output to C.07.dat            
 Writing output to C.08.dat            
 Writing output to C.09.dat            
 Writing output to C.10.dat            
 Writing output to C.11.dat            
 Writing output to C.12.dat            
 Writing output to C.13.dat            
 Writing output to C.14.dat            
 Writing output to C.15.dat            
 Writing output to C.16.dat            
 Writing output to C.17.dat            
 Writing output to C.18.dat            
 Writing output to C.19.dat            
 Writing output to C.20.dat            
 Writing output to C.21.dat            
 Writing output to C.22.dat            
 Writing output to C.23.dat            
 Writing output to C.24.dat            
 Writing output to C.25.dat            
 Writing output to C.26.dat            
 Writing output to C.27.dat            
 Writing output to C.28.dat            
 Writing output to C.29.dat            
 Writing output to C.30.dat            
 Writing output to C.31.dat            
 Writing output to C.32.dat            
 Writing output to C.33.dat            
 Writing output to C.34.dat            
 Writing output to C.35.dat            
 Writing output to C.36.dat            
 Writing output to C.37.dat            
 Writing output to C.38.dat            
 Writing output to C.39.dat            
 Writing output to C.40.dat            
 Writing output to C.41.dat            
 Writing output to C.42.dat            
 Writing output to C.43.dat            
 Writing output to C.44.dat            
 Writing output to C.45.dat            
 Writing output to C.46.dat            
 Writing output to C.47.dat            
 Writing output to C.48.dat            
 Writing output to C.49.dat            
 Writing output to C.50.dat            
 Writing output to C.51.dat            
 Writing output to C.52.dat            
 Writing output to C.53.dat            
 Writing output to C.54.dat            
 Writing output to C.55.dat            
 Writing output to C.56.dat            
 Writing output to C.57.dat            
 Writing output to C.58.dat            
 Writing output to C.59.dat            
 Writing output to C.60.dat            
 Writing output to C.61.dat            
 Writing output to C.62.dat            
 Writing output to C.63.dat            
 Writing output to C.64.dat            
 Writing output to C.65.dat            
 Writing output to C.66.dat            
 Writing output to C.67.dat            
  
  
 &&&&&&&&&&&&&&&&&&&&&&&&&&&&&&&&&&&&&&&&&&&&&&&&&&&&&&&&&&&&&&&&&&
 -- Exiting QEdark v1.1.0
 &&&&&&&&&&&&&&&&&&&&&&&&&&&&&&&&&&&&&&&&&&&&&&&&&&&&&&&&&&&&&&&&&&
  
  

     init_run     :    120.93s CPU     18.01s WALL (       1 calls)
     electrons    :   2640.19s CPU    464.67s WALL (       1 calls)
     forces       :      7.11s CPU      1.60s WALL (       1 calls)
     stress       :     11.24s CPU      3.24s WALL (       1 calls)

     Called by init_run:
     wfcinit      :    115.42s CPU     16.78s WALL (       1 calls)
     potinit      :      0.13s CPU      0.06s WALL (       1 calls)

     Called by electrons:
     c_bands      :   2264.86s CPU    425.48s WALL (       7 calls)
     sum_band     :    373.97s CPU     38.77s WALL (       7 calls)
     v_of_rho     :      0.65s CPU      0.32s WALL (       7 calls)
     newd         :      3.67s CPU      0.41s WALL (       7 calls)
     mix_rho      :      0.02s CPU      0.02s WALL (       7 calls)

     Called by c_bands:
     init_us_2    :      8.55s CPU      0.96s WALL (    1309 calls)
     cegterg      :   2253.17s CPU    423.97s WALL (     539 calls)

     Called by *egterg:
     h_psi        :   2142.34s CPU    228.25s WALL (    2775 calls)
     s_psi        :      8.62s CPU      6.67s WALL (    2775 calls)
     g_psi        :      1.65s CPU      1.66s WALL (    2159 calls)
     cdiaghg      :     41.10s CPU     40.69s WALL (    2621 calls)

     Called by h_psi:
     add_vuspsi   :      8.97s CPU      6.75s WALL (    2775 calls)

     General routines
     calbec       :     48.96s CPU     10.01s WALL (    3468 calls)
     fft          :      0.59s CPU      0.19s WALL (     118 calls)
     fftw         :   2244.75s CPU    227.96s WALL (  206742 calls)
     davcio       :      0.01s CPU      0.48s WALL (      77 calls)


     PWSCF        :     9d   17h31m CPU        1d    0h48m WALL


   This run was terminated on:  20:42:50  29Oct2019            

=------------------------------------------------------------------------------=
   JOB DONE.
=------------------------------------------------------------------------------=
